/*--------------------------------*- C++ -*----------------------------------*\
| =========                 |                                                 |
| \\      /  F ield         | OpenFOAM: The Open Source CFD Toolbox           |
|  \\    /   O peration     | Version:  v1812                                 |
|   \\  /    A nd           | Web:      www.OpenFOAM.com                      |
|    \\/     M anipulation  |                                                 |
\*---------------------------------------------------------------------------*/
FoamFile
{
    version     2.0;
    format      ascii;
    class       volScalarField;
    location    "0.01";
    object      p;
}
// * * * * * * * * * * * * * * * * * * * * * * * * * * * * * * * * * * * * * //

dimensions      [1 -1 -2 0 0 0 0];


internalField   nonuniform List<scalar> 
132908
(
102746.1147
102777.763
102854.1419
102964.0188
103091.3054
103218.5014
103329.6882
103412.8371
103461.0325
103472.4894
103449.5192
103396.8355
103319.7322
103222.6437
103108.4045
102978.2543
102832.4053
102670.8843
102494.3759
102304.8811
102106.0989
101903.5213
101704.2654
101516.6008
101349.6607
101211.5421
101108.8013
101044.157
101014.9877
101012.6175
101023.2797
101030.9285
101021.1436
100984.7387
100919.8267
100831.8571
100731.9742
100634.4245
100553.7227
100502.068
102716.5944
102746.4292
102819.6341
102926.0084
103051.1686
103179.0991
103294.6418
103385.5431
103443.7584
103465.8614
103452.5505
103407.4233
103335.3721
103241.062
103127.9062
102997.7512
102851.2317
102688.5647
102510.4919
102319.1166
102118.4622
101914.6679
101715.789
101531.1532
101370.4866
101242.0563
101151.1426
101097.9555
101076.4668
101074.7325
101077.1517
101068.1761
101036.1547
100975.9614
100889.6581
100785.3655
100675.125
100572.4631
100490.1689
100438.4961
102723.9799
102749.2204
102811.7613
102904.2985
103016.1131
103134.6262
103247.038
103341.8978
103410.3802
103447.0699
103450.1107
103420.6778
103361.904
103277.5683
103170.9525
103044.2106
102898.4032
102734.1146
102552.412
102355.8429
102149.1743
101939.6556
101736.6881
101550.9856
101392.5058
101269.5208
101185.405
101137.4833
101116.5427
101108.3785
101097.0991
101069.0959
101016.2075
100937.0784
100836.6419
100724.3259
100611.814
100510.9807
100432.295
100383.7354
102753.2133
102772.3565
102820.5231
102893.9096
102986.321
103089.5853
103194.2159
103290.378
103369.0017
103422.818
103447.0766
103439.7591
103401.2096
103333.2818
103238.298
103118.2259
102974.3826
102807.7736
102619.9931
102414.3844
102196.9793
101976.7721
101765.0942
101574.0909
101414.5433
101293.54
101212.2291
101164.8176
101139.3106
101120.2488
101092.6073
101045.4283
100973.933
100879.7526
100769.6078
100653.2696
100541.4976
100444.3871
100370.2832
100325.2123
102789.5862
102802.9758
102837.4244
102892.1214
102964.9155
103051.8222
103146.8232
103242.1921
103329.3
103399.6994
103446.211
103463.7218
103449.4591
103402.6845
103323.9443
103214.2161
103074.4372
102905.581
102709.5213
102490.5142
102256.4373
102019.0012
101792.4842
101591.2227
101426.6228
101304.3599
101222.8298
101173.0333
101140.6525
101109.7645
101066.7862
101003.3571
100917.4
100812.4328
100695.9896
100577.5991
100467.0222
100372.9509
100302.2484
100259.6655
102820.8273
102830.2721
102855.1408
102896.3086
102954.1382
103027.5812
103113.4566
103206.2414
103298.4704
103381.6419
103447.369
103488.4472
103499.5583
103477.3399
103419.8035
103325.7096
103194.5441
103025.9823
102820.824
102583.5887
102324.5712
102059.9421
101809.017
101589.8928
101414.8809
101287.8202
101204.0302
101151.1822
101112.7265
101072.5505
101018.5091
100944.3543
100849.6409
100738.8663
100619.6216
100500.8972
100391.6164
100299.5834
100230.8801
100189.6667
102839.9996
102847.9199
102868.862
102903.8545
102953.8293
103018.878
103097.4942
103186.0987
103279.0421
103369.1191
103448.4405
103509.3961
103545.3481
103550.8485
103521.3577
103451.5722
103338.2007
103176.7695
102963.8813
102702.6836
102406.2033
102097.885
101806.7728
101557.7728
101365.024
101228.9696
101142.4522
101088.5367
101047.5335
101003.1231
100944.2126
100866.0954
100769.2011
100658.3012
100540.6093
100424.413
100317.9059
100228.3335
100161.454
100121.2988
102845.7537
102854.2936
102876.398
102912.0227
102960.9985
103022.8415
103096.4459
103179.6935
103269.1962
103360.2905
103447.3209
103524.1102
103584.4002
103621.9939
103630.2274
103591.6794
103513.2531
103379.5807
103174.0123
102891.6094
102545.5834
102170.9473
101813.8743
101514.4832
101292.4017
101114.3107
101026.3321
100977.1362
100940.0568
100898.2052
100841.4882
100766.125
100673.4388
100568.1935
100457.0944
100347.6344
100247.2247
100162.5509
100099.1057
100060.8889
102840.5993
102851.0413
102877.4165
102917.9996
102970.5759
103033.0004
103103.5752
103181.0927
103264.5297
103352.5369
103442.9957
103532.7379
103617.4292
103691.5797
103748.1518
103758.3245
103732.2842
103643.8791
103455.1953
103141.536
102709.4837
102216.1531
101748.8103
101375.9467
101120.0991
100924.1426
100846.6116
100812.5455
100789.1287
100758.4974
100711.2961
100645.0757
100562.167
100467.6563
100367.9555
100269.8386
100179.8395
100103.8504
100046.7965
100012.3591
102828.4509
102841.0612
102872.4198
102919.1576
102976.9343
103041.6588
103110.6046
103182.996
103259.8675
103343.2273
103434.9974
103535.9869
103645.3105
103759.8766
103873.7567
103950.8827
104012.3136
104014.5684
103884.3599
103544.0729
102963.6636
102247.1847
101586.3723
101107.7237
100825.2455
100635.9345
100592.9346
100592.8024
100597.5209
100588.7667
100559.0638
100507.971
100439.4592
100359.559
100274.8823
100191.7938
100116.0005
100052.3701
100004.8199
99976.21087
102812.6128
102826.8308
102861.9201
102913.3687
102975.314
103042.1573
103110.22
103178.8036
103250.342
103329.5667
103422.0406
103532.7062
103665.0033
103820.7049
103999.7478
104162.5073
104345.7194
104510.2651
104543.2622
104235.0199
103379.9124
102186.1484
101187.6332
100604.7948
100350.5739
100225.3695
100260.1798
100321.5687
100372.4155
100397.7233
100393.8429
100363.4988
100313.1423
100250.4077
100182.725
100116.5292
100056.9555
100007.8131
99971.71612
99950.28682
102794.7678
102809.5746
102846.0342
102899.2183
102962.6768
103030.1549
103097.4292
103163.6694
103231.8696
103308.2607
103401.0161
103518.7361
103669.3377
103860.2249
104099.7789
104359.1727
104702.8546
105118.7147
105528.0636
105537.8116
104191.386
101698.9783
100211.2854
99695.15981
99637.13116
99691.11386
99858.8608
100012.9115
100127.8215
100198.1978
100227.4252
100222.4384
100192.9413
100148.6385
100098.2533
100048.7773
100005.1564
99970.35406
99945.714
99931.53354
102774.9074
102789.1976
102824.4368
102876.012
102937.8177
103003.8509
103069.8648
103134.7572
103201.2583
103275.8484
103367.7753
103487.8074
103647.8215
103861.0742
104143.4334
104479.9307
104964.829
105665.1814
106661.008
108169.1842
106335.4504
99080.06471
97976.41295
98260.45156
98705.42739
99080.42802
99428.97704
99696.29011
99885.77189
100007.2874
100073.2719
100096.0648
100088.5376
100062.5641
100028.3219
99993.65266
99963.68763
99940.93779
99925.84542
99917.68372
102751.802
102764.6614
102796.5213
102843.6444
102901.0049
102963.5316
103027.3706
103091.1146
103156.6509
103229.4294
103318.2578
103434.8312
103592.5193
103806.3987
104097.5166
104468.9388
105011.6676
105819.1419
107132.1904
109936.4677
90496.62756
94822.33354
96667.30163
97770.27198
98514.39401
99041.19089
99415.49413
99674.66632
99844.45985
99945.32741
99994.71548
100007.9623
99998.67436
99978.22723
99955.27951
99935.38767
99921.05327
99912.3788
99908.17077
102723.655
102734.5167
102761.656
102802.4961
102853.4956
102910.8576
102971.3669
103033.4638
103097.6356
103167.6965
103250.884
103357.2351
103499.3973
103692.8739
103953.8572
104289.707
104762.9215
105415.4749
106312.5795
107313.4999
89629.62436
93507.26482
95756.90194
97165.85962
98136.42698
98769.94219
99214.46406
99522.0689
99727.50245
99855.5566
99926.48759
99956.89976
99961.08471
99951.11478
99936.18842
99922.31229
99912.34665
99906.62479
99904.08573
102688.7845
102697.4636
102719.4113
102753.2794
102797.0306
102848.2342
102904.4458
102963.7216
103025.4711
103091.5299
103166.1583
103256.9619
103373.9088
103525.7169
103721.3745
103976.6388
104296.1417
104653.0844
105021.638
105075.3615
90623.74259
92128.60245
94113.38228
95796.21596
97052.13847
98027.8107
98666.60402
99125.76727
99448.38747
99669.25566
99812.27439
99896.26107
99937.86619
99951.05196
99947.62361
99936.91986
99925.272
99916.06034
99910.26153
99907.41473
102646.1842
102652.8226
102669.8785
102697.0385
102733.5674
102778.2335
102829.2536
102884.6329
102942.8134
103003.3043
103067.7035
103139.8625
103223.9971
103323.6968
103439.3313
103575.5948
103696.6159
103766.6895
103785.5506
103724.6831
93448.66392
94189.07134
95326.60734
96436.76777
97359.92941
98187.21562
98741.37982
99156.52751
99461.63267
99675.47408
99818.12284
99905.35996
99950.95587
99967.76735
99966.72569
99956.67742
99944.06893
99932.8091
99924.68684
99920.10127
102595.8563
102600.7798
102613.6672
102634.958
102664.8917
102703.1368
102748.5208
102799.1425
102852.6062
102906.6783
102960.3422
103013.0185
103063.8789
103110.8262
103140.4668
103156.5121
103095.3872
102878.6295
102498.8363
102080.4023
94877.47656
95705.04182
96579.70284
97324.20433
97949.11483
98540.94723
98965.42823
99298.96634
99554.81318
99742.92737
99871.29279
99951.45619
99993.96988
100009.0412
100006.315
99993.81535
99977.7669
99962.5066
99950.62769
99943.43495
102538.7456
102542.3221
102551.8838
102568.3459
102592.5761
102624.8783
102664.6241
102710.0561
102758.2524
102805.879
102849.3993
102884.5349
102907.1916
102909.3327
102872.0047
102797.8734
102604.1216
102173.3802
101335.5956
99583.39482
95327.38295
96927.55947
97801.84758
98280.56707
98644.62426
99022.19138
99288.86246
99523.93504
99714.43001
99861.35599
99965.18954
100029.9814
100063.0406
100071.7681
100063.8352
100046.3207
100025.0459
100004.5761
99988.18697
99977.98867
102476.3821
102478.9315
102485.91
102498.4894
102517.8943
102544.8754
102579.257
102619.4446
102662.4243
102704.2199
102739.277
102761.4645
102765.086
102738.465
102666.4741
102560.1359
102343.8362
101935.9222
101160.8607
99060.6008
97554.19135
98712.38275
99075.28796
99231.5953
99351.00692
99537.58604
99663.26209
99797.22024
99918.95634
100017.9248
100090.4777
100134.6593
100153.6142
100152.4135
100136.6403
100112.2361
100084.5991
100058.3457
100037.2343
100023.9955
102410.4691
102412.2495
102417.2603
102426.7739
102442.194
102464.5922
102494.1217
102529.4265
102567.7856
102604.8015
102633.965
102649.4215
102644.0558
102606.7873
102536.7885
102448.0147
102296.1745
102124.2177
102047.6297
102824.003
102331.4174
100816.631
100301.325
100094.6453
99997.62347
100027.1081
100041.3573
100087.8224
100146.4296
100198.6564
100237.6823
100258.7665
100261.1185
100247.7013
100222.4487
100190.1034
100155.6236
100123.5744
100097.9665
100081.9273
102342.6147
102343.8361
102347.3841
102354.5255
102366.7379
102385.3036
102410.6031
102441.6833
102476.2838
102509.8265
102536.3382
102550.7671
102544.9104
102513.6317
102465.2574
102410.458
102346.968
102361.5441
102585.5664
103191.5298
103496.6049
101901.5599
101148.9645
100759.1705
100533.0422
100450.621
100391.5779
100372.8597
100379.2816
100391.1119
100398.5694
100396.5942
100381.7505
100355.2449
100319.8935
100279.4198
100238.2865
100200.9379
100171.4188
100153.0229
102274.1714
102275.0149
102277.5366
102282.9314
102292.684
102308.1767
102329.988
102357.7051
102389.5063
102421.1537
102448.0942
102465.5602
102465.898
102449.5438
102424.973
102401.797
102391.5966
102456.4376
102650.0236
103052.521
102703.6689
102143.5905
101577.0974
101192.1125
100933.4835
100795.3959
100696.4759
100637.5506
100606.2709
100586.569
100567.3827
100544.0881
100513.029
100473.8515
100428.7484
100380.755
100333.7832
100292.0574
100259.4953
100239.3354
102205.9507
102206.5749
102208.4554
102212.6875
102220.7121
102233.9221
102253.1177
102278.4389
102308.4821
102339.8812
102369.5107
102392.646
102403.0789
102403.1919
102397.8615
102395.2716
102399.3242
102443.2356
102528.9715
102527.6257
102635.3059
102141.6077
101753.8105
101444.9121
101211.28
101063.9166
100952.3265
100874.8909
100820.6387
100778.8442
100739.3074
100698.3302
100653.1413
100602.859
100549.2067
100494.883
100443.34
100398.4474
100363.8641
100342.6085
102137.6617
102138.2019
102139.7783
102143.3878
102150.3904
102162.1412
102179.6788
102203.6063
102232.9786
102265.5378
102299.2118
102329.4135
102350.9958
102365.4418
102373.6501
102380.9434
102379.6829
102388.2407
102404.8071
102460.8801
102263.9298
102072.4896
101813.0849
101583.6124
101396.0973
101266.7324
101162.0117
101082.0193
101017.8921
100963.1731
100909.9974
100855.8614
100799.487
100740.2551
100679.7899
100620.6628
100565.8963
100519.0447
100483.4041
100461.6632
102067.3184
102067.8875
102069.4497
102072.9198
102079.5551
102090.661
102107.4921
102130.9977
102160.7297
102195.4671
102233.826
102271.4304
102303.3441
102328.8963
102345.6786
102356.2043
102344.7518
102323.3309
102288.854
102176.0973
102233.8325
102006.3136
101821.461
101655.9155
101516.7337
101417.1862
101330.6614
101258.6061
101194.539
101134.7269
101074.0115
101011.2556
100946.7985
100880.8355
100815.1655
100752.4474
100695.5168
100647.5059
100611.3918
100589.5314
101991.4051
101992.0942
101993.882
101997.6203
102004.4586
102015.6618
102032.6555
102056.647
102087.6754
102125.3249
102168.631
102213.3762
102254.1502
102287.8429
102309.6086
102320.3735
102300.7056
102259.7172
102204.5584
102167.8163
102046.2817
101940.3899
101809.1277
101692.5226
101596.4417
101528.8604
101464.7203
101406.0444
101348.1737
101288.8457
101225.0491
101157.1896
101087.0365
101015.8594
100945.8948
100880.0484
100821.1347
100772.0386
100735.4501
100713.4394
101906.5999
101907.4749
101909.6688
101913.9893
101921.4945
101933.4357
101951.3805
101976.756
102010.0386
102051.3496
102099.9323
102151.6033
102200.1101
102240.0449
102264.8451
102275.0256
102251.3307
102199.9916
102128.6829
102021.9462
102021.962
101891.7235
101793.6758
101714.1176
101653.2714
101613.9394
101571.1712
101527.0952
101477.8874
101421.7775
101357.3068
101286.2431
101211.5931
101135.7244
101061.4937
100992.1799
100930.7416
100879.9687
100842.3851
100819.892
101812.6604
101813.7584
101816.4753
101821.5994
101830.1412
101843.3896
101863.0621
101890.8108
101927.4775
101973.4615
102028.0006
102086.7889
102142.6229
102188.0901
102215.5231
102225.2171
102201.2609
102147.2431
102075.4108
102009.8447
101930.5722
101855.3496
101784.397
101732.5409
101698.1697
101680.1877
101654.9301
101623.9195
101583.1983
101530.8703
101466.5541
101393.0964
101314.4804
101234.0577
101155.378
101082.1631
101017.62
100964.5712
100925.4798
100902.1655
101714.3813
101715.7204
101719.0428
101725.1504
101735.0727
101750.2041
101772.4442
101803.6818
101845.0239
101896.8867
101958.2387
102024.4588
102087.4377
102138.1256
102167.9947
102177.4788
102154.8784
102102.0461
102028.9961
101945.2308
101913.6765
101834.9759
101781.6083
101748.9665
101732.3976
101728.2495
101716.2072
101695.8978
101662.5799
101613.991
101550.5369
101475.6873
101394.1777
101310.1034
101227.665
101151.0185
101083.644
101028.4581
100987.9149
100963.7948
101620.4462
101622.0615
101626.125
101633.4829
101645.2488
101662.9754
101688.7551
101724.6757
101771.9542
101830.7314
101899.3763
101972.7157
102041.8595
102096.5845
102127.8561
102136.2112
102113.9845
102062.9057
101994.0281
101922.4491
101875.9029
101817.507
101776.8883
101755.9696
101749.8139
101753.6351
101751.59
101740.2576
101713.8826
101669.8347
101608.9186
101534.9846
101453.01
101367.6207
101283.536
101205.2696
101136.5365
101080.3508
101039.1595
101014.6997
101539.3478
101541.3442
101546.4618
101555.6017
101569.9911
101591.3369
101621.8595
101663.7101
101717.975
101784.1879
101859.7484
101938.6745
102011.4763
102067.3587
102097.2587
102102.1341
102077.2852
102025.6259
101956.6927
101889.5494
101847.5754
101795.3313
101761.2064
101746.0895
101745.1929
101753.4599
101759.3032
101756.0928
101737.0699
101699.3145
101643.6993
101573.9343
101494.9164
101411.5256
101328.8338
101251.6041
101183.7208
101128.2693
101087.671
101063.597
101475.4622
101478.0494
101484.7928
101496.6259
101514.8595
101541.2664
101578.0245
101627.0915
101689.0968
101762.6183
101843.7573
101925.5275
101998.0739
102050.7869
102075.3972
102073.9568
102043.0684
101988.092
101918.8203
101844.6923
101815.1995
101763.8517
101733.2909
101720.508
101721.2792
101732.4186
101744.2839
101748.1408
101736.7374
101706.847
101659.0013
101596.3272
101523.3539
101444.9916
101366.4988
101292.7741
101227.8012
101174.7025
101135.8523
101112.837
101428.7751
101432.2421
101441.3664
101457.0557
101480.6089
101513.6928
101558.1781
101615.4845
101685.4221
101765.3356
101849.8616
101931.0039
101998.9377
102044.0655
102059.6856
102049.9419
102011.6434
101951.9242
101880.4132
101817.0499
101770.1287
101729.6979
101701.7115
101688.8057
101690.2192
101702.7387
101717.6933
101726.6617
101721.8518
101699.82
101660.4711
101606.0659
101540.5811
101468.8042
101396.0287
101327.1809
101266.2772
101216.4421
101179.9851
101158.3996
101398.3448
101402.9425
101415.0807
101435.5485
101465.488
101506.2425
101559.0876
101624.5758
101701.4276
101785.6728
101870.6226
101947.5997
102007.3068
102041.7945
102046.6142
102028.2682
101983.8034
101922.12
101848.6766
101768.3176
101741.029
101703.4219
101677.5243
101665.6131
101665.3104
101677.3828
101692.6392
101703.5883
101702.9054
101686.8183
101654.3951
101607.1898
101548.4728
101482.8484
101415.5208
101351.3579
101294.3651
101247.6539
101213.4732
101193.2374
101385.7845
101391.5283
101406.6873
101431.8365
101467.825
101515.5066
101575.3863
101646.997
101727.9342
101813.1234
101895.0289
101964.856
102014.3004
102037.3906
102031.8737
102006.4379
101958.8991
101899.733
101841.432
101731.4062
101710.9702
101698.1664
101669.946
101656.3086
101655.7431
101664.5229
101677.9592
101688.2209
101688.5602
101675.2967
101646.8712
101604.0536
101549.6453
101488.0011
101424.1653
101362.9202
101308.2804
101263.3915
101230.5044
101211.0183
101394.9828
101401.445
101418.503
101446.5077
101486.0198
101537.4416
101600.5969
101674.1454
101754.8024
101836.8256
101912.4352
101973.2568
102012.2143
102025.1816
102012.1159
101977.1265
101926.5005
101869.2495
101807.8502
101712.1563
101716.9317
101683.9399
101664.0026
101654.2877
101656.0244
101664.8107
101675.9176
101683.6894
101682.8364
101669.5786
101641.9885
101600.3552
101547.1311
101486.4278
101423.1274
101361.985
101307.1322
101261.8804
101228.6232
101208.8701
101427.5598
101433.826
101450.4681
101477.7957
101516.3486
101566.4201
101627.5441
101697.9055
101773.7322
101849.038
101916.2267
101967.6091
101997.2474
102002.4133
101984.3398
101947.3359
101897.4418
101842.0706
101786.2952
101722.5209
101718.4852
101682.5696
101669.4066
101663.113
101665.5228
101673.0401
101681.4689
101686.4787
101683.3614
101668.3899
101639.4737
101596.6292
101542.0526
101479.6309
101414.1273
101350.3786
101292.78
101244.973
101209.6608
101188.6081
101476.8474
101481.8521
101495.4318
101518.1956
101551.116
101594.8826
101649.2368
101712.314
101780.173
101846.8022
101904.9152
101947.4854
101969.4569
101969.0113
101948.0157
101910.8247
101863.3192
101812.2027
101764.4394
101711.9559
101712.5625
101680.9403
101671.0548
101667.6338
101670.9214
101677.6578
101684.1832
101686.7435
101681.1636
101663.8583
101632.7524
101587.7326
101530.7694
101465.5227
101396.6632
101329.1667
101267.7555
101216.4685
101178.3906
101155.605
101524.2775
101527.5015
101536.7371
101553.1185
101578.3143
101613.6785
101659.4025
101713.7686
101772.788
101830.4637
101879.7915
101914.3164
101929.6889
101924.7261
101901.6367
101864.7687
101819.7891
101772.683
101730.8775
101685.4884
101689.3941
101664.2003
101657.3493
101656.2718
101660.2845
101666.2604
101670.9621
101671.0153
101662.7607
101642.9385
101609.6599
101562.7908
101504.0908
101436.966
101365.9448
101296.0507
101232.1986
101178.6761
101138.8167
101114.9152
101541.4733
101543.5372
101549.9171
101562.0726
101582.0538
101611.541
101650.8952
101698.3814
101749.9163
101799.5431
101840.6043
101867.2963
101876.0469
101866.3322
101840.703
101803.5466
101760.2773
101716.196
101678.4426
101638.5193
101643.3042
101623.7458
101619.2027
101619.5304
101623.3372
101627.6385
101629.5716
101626.2114
101614.5348
101591.8574
101556.6744
101508.9521
101450.2802
101383.7714
101313.6759
101244.816
101181.9672
101129.3136
101090.1149
101066.6182
101498.9052
101501.4584
101508.9654
101522.6147
101543.9938
101574.2167
101613.0609
101658.2992
101705.5887
101749.0955
101782.7386
101801.656
101803.3416
101788.1658
101759.1917
101720.9753
101678.7242
101637.1712
101602.9413
101567.9722
101571.1706
101555.932
101552.3664
101552.5784
101554.5388
101555.4879
101552.9774
101544.6997
101528.4476
101502.3428
101465.4399
101417.9169
101361.2366
101298.1602
101232.4702
101168.4734
101110.4238
101062.02
101026.1141
101004.6472
101378.1689
101383.0417
101396.1397
101417.7879
101448.2627
101487.1812
101532.9048
101582.134
101630.0082
101670.8413
101699.3335
101711.8438
101707.2147
101686.9529
101654.8204
101615.6849
101574.6331
101535.9604
101505.6749
101475.6394
101476.0505
101463.5758
101459.4326
101457.7667
101456.0563
101451.8822
101443.3027
101428.7775
101407.0411
101377.1364
101338.7436
101292.2771
101239.0539
101181.3855
101122.3993
101065.6425
101014.606
100972.3116
100941.0752
100922.4564
101182.642
101190.9228
101212.3364
101246.1414
101290.9831
101344.5763
101403.4329
101462.797
101517.0124
101560.3774
101588.2912
101598.291
101590.5522
101567.7336
101534.3429
101495.6327
101456.6469
101421.3655
101395.201
101369.4676
101366.9678
101355.6251
101349.5631
101344.6433
101338.0887
101327.9212
101312.7697
101291.9015
101264.9733
101231.8818
101192.8315
101148.3646
101099.5408
101048.0994
100996.3935
100947.1362
100903.0616
100866.6058
100839.6926
100823.6507
100941.7907
100953.4619
100983.2585
101029.6102
101089.8427
101160.0507
101235.0665
101308.6898
101374.3159
101425.927
101459.2057
101472.3966
101466.5619
101445.1754
101413.3075
101376.546
101339.9569
101307.3799
101283.8342
101260.1867
101254.821
101243.0086
101234.2645
101225.822
101214.873
101199.8805
101179.97
101155.0648
101125.5162
101091.8023
101054.3903
101013.7347
100970.4839
100925.7203
100881.0272
100838.3953
100800.014
100768.0081
100744.1954
100729.9191
100707.0796
100721.2533
100757.3562
100813.4405
100886.1568
100970.6641
101060.6957
101148.9642
101227.9808
101291.1718
101334.0064
101354.7802
101354.7603
101337.6679
101308.7785
101273.8646
101238.0868
101205.4208
101180.8975
101155.7413
101147.1154
101133.5153
101122.2358
101111.7064
101099.1857
101083.4026
101063.6871
101040.2256
101013.6114
100984.4605
100953.1486
100919.8099
100884.5768
100847.8929
100810.7049
100774.5025
100741.1962
100712.8627
100691.4389
100678.4517
100539.5972
100554.9947
100594.2983
100655.5625
100735.336
100828.4893
100928.2695
101026.7775
101115.9043
101188.5404
101239.7297
101267.427
101272.6177
101258.7996
101231.1068
101195.3093
101156.7231
101119.7502
101089.8883
101059.8719
101047.4475
101031.496
101018.9962
101009.595
101000.5733
100990.5827
100978.6741
100964.7128
100948.9379
100931.5937
100912.6333
100891.7269
100868.5097
100842.9237
100815.4809
100787.3763
100760.4036
100736.6866
100718.3174
100707.0093
100489.8706
100505.2701
100544.6953
100606.3151
100686.788
100780.9911
100882.0531
100981.8846
101072.1938
101145.7425
101197.4731
101225.1864
101229.6046
101213.8712
101182.7673
101141.848
101096.5132
101051.6947
101013.6413
100977.2648
100961.1937
100943.586
100932.1331
100927.9294
100928.1262
100930.9014
100934.5198
100937.9489
100940.544
100941.7952
100941.0668
100937.5917
100930.6636
100919.9299
100905.6449
100888.7962
100871.033
100854.4038
100840.9875
100832.5249
100573.5041
100588.0552
100625.3197
100683.3806
100758.7992
100846.3567
100939.1746
101029.3477
101109.0166
101171.576
101212.6382
101230.4941
101226.0136
101202.124
101163.1524
101114.1849
101060.4335
101007.1275
100961.1374
100919.5425
100901.0296
100883.6581
100875.676
100879.714
100892.6509
100911.9312
100934.776
100959.0057
100982.932
101005.2667
101024.9073
101040.8621
101052.3149
101058.7946
101060.3614
101057.7164
101052.1552
101045.3601
101039.0888
101034.8467
100755.674
100768.9833
100802.8859
100855.0472
100921.5605
100996.8913
101074.2204
101146.2142
101206.08
101248.5861
101270.7239
101271.8554
101253.4025
101218.2897
101170.4131
101114.2386
101054.487
100996.2266
100946.4274
100903.499
100885.0098
100870.6229
100867.7822
100880.3085
100904.7687
100937.9509
100976.2886
101016.8058
101057.1937
101095.8281
101131.5458
101163.4496
101190.811
101213.1053
101230.1282
101242.1034
101249.6967
101253.9055
101255.8557
101256.5605
100961.0157
100973.0217
101003.2805
101048.921
101105.4703
101167.1135
101227.2776
101279.4761
101318.242
101339.8877
101342.8701
101327.6973
101296.4878
101252.4034
101199.1871
101140.8794
101081.663
101026.0388
100980.3249
100942.7259
100928.4845
100920.5906
100923.7605
100942.1578
100972.1308
101010.2977
101053.1069
101097.709
101142.0756
101184.9917
101225.7581
101263.8725
101298.8121
101329.9903
101356.8529
101379.0237
101396.4045
101409.1791
101417.7266
101422.4749
101109.8007
101120.7543
101148.0637
101188.5655
101237.5267
101289.1391
101337.2231
101376.0472
101401.1189
101409.7693
101401.3873
101377.2708
101340.1858
101293.8059
101242.2086
101189.5086
101139.609
101096.2494
101064.3567
101040.3017
101035.9298
101038.735
101049.0152
101069.9987
101097.9426
101129.9249
101163.371
101196.6084
101228.8484
101260.0224
101290.3735
101320.059
101348.8953
101376.3169
101401.5141
101423.6505
101442.0546
101456.3208
101466.3044
101472.0332
101156.5133
101167.1532
101193.5686
101232.6455
101279.7202
101329.1238
101374.8826
101411.5121
101434.7835
101442.3075
101433.8059
101411.0216
101377.3145
101337.0688
101295.0468
101255.7959
101223.1488
101200.0039
101189.4367
101185.0725
101195.3709
101212.5827
101231.7579
101253.9578
101275.2514
101293.4034
101307.2527
101316.835
101323.1417
101327.7249
101332.1517
101337.5513
101344.3667
101352.3651
101360.8532
101368.982
101376.0197
101381.5114
101385.298
101387.4225
101106.7381
101118.1994
101146.7425
101189.3711
101241.4469
101297.1709
101350.2812
101394.9353
101426.6097
101442.8057
101443.3902
101430.5055
101408.1003
101381.2135
101355.1472
101334.6694
101323.3282
101323.0584
101335.0894
101350.649
101376.2826
101408.4925
101437.592
101461.9588
101477.1134
101481.0143
101473.3798
101455.5255
101429.9961
101399.9625
101368.5073
101338.0704
101310.1658
101285.4148
101263.8225
101245.1545
101229.2685
101216.2933
101206.624
101200.7665
101007.0681
101020.2378
101053.167
101102.733
101163.974
101230.5542
101295.5564
101352.5526
101396.6937
101425.5101
101439.2089
101440.4249
101433.5448
101423.8084
101416.368
101415.4723
101423.8592
101442.4613
101471.2387
101500.471
101536.6135
101579.517
101616.7773
101644.6339
101657.7685
101653.4493
101631.0403
101591.8871
101539.0719
101476.7614
101409.3583
101340.7827
101274.0439
101211.1797
101153.4969
101101.9539
101057.5081
101021.2958
100994.5933
100978.6007
100919.1472
100933.8564
100970.6678
101026.0883
101094.6373
101169.4246
101243.1075
101309.113
101362.7888
101402.1275
101427.8591
101442.9396
101451.651
101458.607
101467.8891
101482.4734
101503.969
101532.639
101568.1589
101601.4894
101640.1038
101686.0276
101726.7967
101757.8357
101773.0737
101768.4944
101742.0156
101693.7048
101625.899
101542.7427
101449.3506
101350.9401
101252.1652
101156.8091
101067.8294
100987.6254
100918.3432
100862.0579
100820.755
100796.1309
100891.753
100906.5226
100943.4138
100998.654
101066.5704
101140.3518
101213.1175
101279.0988
101334.5965
101378.4179
101411.6765
101437.0739
101457.9519
101477.4386
101497.8996
101520.7829
101546.7744
101576.1243
101609.1185
101638.2391
101672.0337
101713.6008
101752.3313
101784.1189
101802.6411
101802.7286
101780.6323
101734.6277
101665.567
101576.7582
101473.3007
101361.1722
101246.3345
101134.1037
101028.8831
100934.2051
100852.9359
100787.4775
100739.8526
100711.6479
100942.5148
100955.1792
100986.6893
101033.4505
101090.3536
101151.6567
101212.0061
101267.3485
101315.4828
101356.099
101390.3308
101420.0165
101446.955
101472.42
101497.0398
101521.0273
101544.6117
101568.5476
101594.079
101615.1145
101640.3948
101672.9905
101704.9226
101733.3755
101752.5452
101756.952
101741.9747
101704.686
101644.6723
101564.1989
101467.7761
101361.3251
101251.1924
101143.2975
101042.5965
100952.9005
100876.9677
100816.7262
100773.5001
100748.1633
101056.204
101064.9472
101086.5515
101118.2114
101156.1735
101196.5553
101236.1433
101272.9196
101306.187
101336.2974
101364.1239
101390.4906
101415.7711
101439.7893
101462.0075
101481.9061
101499.4637
101515.9195
101533.5497
101547.3843
101564.4115
101586.1057
101607.568
101627.9673
101642.8028
101647.4571
101637.8273
101611.083
101566.4156
101505.2697
101431.096
101348.7189
101263.4909
101180.4796
101103.8826
101036.7549
100981.0261
100937.7132
100907.2131
100889.5808
101196.4521
101200.6562
101210.6137
101224.9676
101241.8161
101259.3852
101276.4647
101292.5909
101307.9476
101323.0609
101338.4252
101354.2095
101370.1356
101385.5572
101399.6772
101411.7494
101421.1834
101428.6786
101438.6266
101450.1067
101462.2945
101471.5778
101479.8543
101488.9949
101495.8147
101497.3884
101491.3135
101476.0323
101451.1282
101417.3903
101376.7241
101331.8364
101285.7623
101241.3799
101201.0357
101166.3464
101138.1866
101116.8225
101102.1299
101093.8019
107399.8503
89408.83039
90252.94792
105124.8757
90492.93813
90409.03957
91926.09795
89477.48972
103768.3841
93374.44867
90586.91009
93399.02829
94054.36395
92006.46668
102140.3639
94848.60475
93453.55212
94850.10022
95600.22134
94120.00706
99685.04711
95312.34948
94876.95348
95315.94973
96805.53515
95650.70281
98972.8497
97224.40264
95324.03852
109968.2112
106607.5707
90470.88327
99180.18327
83901.81038
83752.07071
105061.53
105136.0146
107290.0749
88047.60796
88990.65871
86842.72414
103821.4948
103769.8421
105086.3038
104430.3772
104358.8144
104692.8639
92123.71986
92426.96785
91033.6997
102534.1746