/*--------------------------------*- C++ -*----------------------------------*\
| =========                 |                                                 |
| \\      /  F ield         | OpenFOAM: The Open Source CFD Toolbox           |
|  \\    /   O peration     | Version:  v1812                                 |
|   \\  /    A nd           | Web:      www.OpenFOAM.com                      |
|    \\/     M anipulation  |                                                 |
\*---------------------------------------------------------------------------*/
FoamFile
{
    version     2.0;
    format      ascii;
    class       volScalarField;
    location    "0.01";
    object      rho;
}
// * * * * * * * * * * * * * * * * * * * * * * * * * * * * * * * * * * * * * //

dimensions      [1 -3 0 0 0 0 0];


internalField   nonuniform List<scalar> 
132908
(
1.187878003
1.188136877
1.18875632
1.189646118
1.190674831
1.191700861
1.19259625
1.193264852
1.193651712
1.193742917
1.193557216
1.193132488
1.1925112
1.191728894
1.190808251
1.189759132
1.188583137
1.187280396
1.185856389
1.184327249
1.182722799
1.181087298
1.179478418
1.17796336
1.176610322
1.175493536
1.174662066
1.174138874
1.173903027
1.17388421
1.173970799
1.174032803
1.173952203
1.173656094
1.173128687
1.172413787
1.171601815
1.170808399
1.170151625
1.169730602
1.187598951
1.187843858
1.188441362
1.189308435
1.190326915
1.19136654
1.192304751
1.193042842
1.193516118
1.193697035
1.193591263
1.19322793
1.19264673
1.191885603
1.190972355
1.189922031
1.188739735
1.187427084
1.185989909
1.1844451
1.182825158
1.18117981
1.179574739
1.178086116
1.176787867
1.175755477
1.175027566
1.174605823
1.174440063
1.174431461
1.174451717
1.174373914
1.174102798
1.173599763
1.172883187
1.17202066
1.171111507
1.170266422
1.169589746
1.169164636
1.187614351
1.187823455
1.188339715
1.189102248
1.190021652
1.190994398
1.191915953
1.192693273
1.193254879
1.193557071
1.19358512
1.193349012
1.19287471
1.192193411
1.191332147
1.190308579
1.189131251
1.18780466
1.186337168
1.184749218
1.18307941
1.181386706
1.179748078
1.178251028
1.176972956
1.175988471
1.175321019
1.174948331
1.174793383
1.174737694
1.174649229
1.174415631
1.173969441
1.173302731
1.17245819
1.171515606
1.170573221
1.169729991
1.169072703
1.168666825
1.187805683
1.187966938
1.188371964
1.188987009
1.189758402
1.19061722
1.191484725
1.192280176
1.19292972
1.193374628
1.193576983
1.193521279
1.193211259
1.192662811
1.191895383
1.190925209
1.189762918
1.18841638
1.186898183
1.185235238
1.18347653
1.181695443
1.179985124
1.178444002
1.177158879
1.176192765
1.175551486
1.175187063
1.174999329
1.174858956
1.174640189
1.174251355
1.173651335
1.172855945
1.171922156
1.170933312
1.16998174
1.169154045
1.168521898
1.16813662
1.188060084
1.188175831
1.188473505
1.188942802
1.18956231
1.190296396
1.191093772
1.19189022
1.192615054
1.193199768
1.193586696
1.1937353
1.193624171
1.193248325
1.192612942
1.19172634
1.190596141
1.189229982
1.18764272
1.185868721
1.183972117
1.182048666
1.180216142
1.178590145
1.177264185
1.176288896
1.175647571
1.175265793
1.175024167
1.174789382
1.174447203
1.173926477
1.173207909
1.17232126
1.17132952
1.170314051
1.169359957
1.168544199
1.167928615
1.167556179
1.188282833
1.188366936
1.188588466
1.18895058
1.189452347
1.19008196
1.190811042
1.191592984
1.192366127
1.193061039
1.193609798
1.193954554
1.194053069
1.193879049
1.193417187
1.19265791
1.191597202
1.190232198
1.188568985
1.186644038
1.184541292
1.182393205
1.180359097
1.178585366
1.177173786
1.17615936
1.175500015
1.175093743
1.174802631
1.174491765
1.174058846
1.173449834
1.172658645
1.1717229
1.170705359
1.169682662
1.168733181
1.167927375
1.167321966
1.166956436
1.188419659
1.188490946
1.188679842
1.188991094
1.189429018
1.189991648
1.190664597
1.191417111
1.192201992
1.192959764
1.193625855
1.194138486
1.194444251
1.194499686
1.194268734
1.193708599
1.192793478
1.191486105
1.189758329
1.18763524
1.185223027
1.182714266
1.180347146
1.178326269
1.176767787
1.175678807
1.174996562
1.174580661
1.174267129
1.173919326
1.173443497
1.172799914
1.171988939
1.171051522
1.170047326
1.169047041
1.168122551
1.167339155
1.166750475
1.166394659
1.188458739
1.188534104
1.188730091
1.189043387
1.189470224
1.190004826
1.190636768
1.191347561
1.192108388
1.192880067
1.193615563
1.19426404
1.19477456
1.19509717
1.195178327
1.194879959
1.194256682
1.193180214
1.191514567
1.189217424
1.186395532
1.183337161
1.180419851
1.177978353
1.176173234
1.174736452
1.174037421
1.173658331
1.173374043
1.173043334
1.172581368
1.171956398
1.171177785
1.170287532
1.169341703
1.16840448
1.167540391
1.166808417
1.16625786
1.165924593
1.188417631
1.188507387
1.188735215
1.189084769
1.189536401
1.190071651
1.190676059
1.19133917
1.192051768
1.19280168
1.193570377
1.194331002
1.195047658
1.195675559
1.196157669
1.196260975
1.196069466
1.195364363
1.193836012
1.191279618
1.187746695
1.18370662
1.17987651
1.176826429
1.174741097
1.173165199
1.17254496
1.172287453
1.172111601
1.171868422
1.171479927
1.17092666
1.170227662
1.16942903
1.168585063
1.16775392
1.166991625
1.166348265
1.165865434
1.165573447
1.188324729
1.188431255
1.188697102
1.189092943
1.189582245
1.190131262
1.190717833
1.19133573
1.19199316
1.192705764
1.193488121
1.194345648
1.195270154
1.196235843
1.19719391
1.197850571
1.198381527
1.198423509
1.197377469
1.194603325
1.189848682
1.183965149
1.178531634
1.174601408
1.172291718
1.170772599
1.170430607
1.170449592
1.170501498
1.170434143
1.170186497
1.169756681
1.169178747
1.168507548
1.167799147
1.167107688
1.166480767
1.165957628
1.165568747
1.165335129
1.188204032
1.188323103
1.188617571
1.189048904
1.189568222
1.190129718
1.190703904
1.191285834
1.191895897
1.192572715
1.193361156
1.194300632
1.19541817
1.19672729
1.198226433
1.199594394
1.201129115
1.202507386
1.202804907
1.200298847
1.193288878
1.183465956
1.175229535
1.170426188
1.168344117
1.167350946
1.167649589
1.168173935
1.168603654
1.168815224
1.168780406
1.168524704
1.16810347
1.167584862
1.167030931
1.166495115
1.16601857
1.165629969
1.165347375
1.165180429
1.188067412
1.188191014
1.188495622
1.188939226
1.189467972
1.19003065
1.190593511
1.191150993
1.191728752
1.192378485
1.193167176
1.19416474
1.195435066
1.197037597
1.199039048
1.201212151
1.204064869
1.20750863
1.210893504
1.211012348
1.199995676
1.179442433
1.167122732
1.162856507
1.162398293
1.162881331
1.164287719
1.165577885
1.166536937
1.167122419
1.167365523
1.16732716
1.167089416
1.166736655
1.166340089
1.165956153
1.165623066
1.165361709
1.165179516
1.165075629
1.18791392
1.188033191
1.188327258
1.188756568
1.189269829
1.18981771
1.190366251
1.190907885
1.191466573
1.192096731
1.192874919
1.193889511
1.195237318
1.197025958
1.199383228
1.202203514
1.206211519
1.211989788
1.220153436
1.232506979
1.217560493
1.157722169
1.14846538
1.150873602
1.154612045
1.157750248
1.160678148
1.162909283
1.164489367
1.16550389
1.166060411
1.166263826
1.166221446
1.166033965
1.165782872
1.165530319
1.165315536
1.165156049
1.165052947
1.164998331
1.187733202
1.187840697
1.188106716
1.188498838
1.188974411
1.189491548
1.190019384
1.190547831
1.191094141
1.191704678
1.192452958
1.193435632
1.194762427
1.196556256
1.198987469
1.202107943
1.206585061
1.213245356
1.224039793
1.246860131
1.085083133
1.121874508
1.137501579
1.146770178
1.152967484
1.157413049
1.160538167
1.162703556
1.164128844
1.164986846
1.165424363
1.165567258
1.165528813
1.165399159
1.165246757
1.165114888
1.165022291
1.164968878
1.164944425
1.187510361
1.187601389
1.187828384
1.188168416
1.188590973
1.189064484
1.189563156
1.190075558
1.190607492
1.191191739
1.19188932
1.192783741
1.193979306
1.195603056
1.197786734
1.200623762
1.20452465
1.209921995
1.217351716
1.225506268
1.077598067
1.110671996
1.129818745
1.141678841
1.14974265
1.155120514
1.158838296
1.161416979
1.16315071
1.164247742
1.164876439
1.165171448
1.165250505
1.165209268
1.165121251
1.165034769
1.164973096
1.164939473
1.164925812
1.187231411
1.187304436
1.187488447
1.187770769
1.188133266
1.188555564
1.18901817
1.189506158
1.190016055
1.190564725
1.191188279
1.191950523
1.1929342
1.194211012
1.19585503
1.198030378
1.200663733
1.203638161
1.206744747
1.207149191
0.9615858497
1.098958496
1.115766409
1.130124987
1.140697878
1.148773691
1.154237475
1.158088166
1.160804416
1.162679514
1.163912296
1.16465774
1.165049959
1.165203724
1.165213355
1.165154835
1.165080643
1.165019583
1.164981024
1.164962249
1.186887779
1.18694397
1.187087521
1.187314428
1.187617336
1.187985767
1.188405595
1.188861224
1.189341018
1.18984232
1.190378981
1.19098387
1.191692665
1.192534651
1.193516055
1.194704297
1.195699239
1.196309672
1.196528341
1.195985586
0.9941630753
1.116407898
1.126025374
1.135488617
1.143254015
1.150062882
1.154856225
1.15835184
1.160935115
1.162762496
1.163999317
1.164774359
1.165198123
1.165377084
1.165399886
1.165339861
1.16525153
1.165168669
1.165107556
1.165072535
1.186479278
1.186521369
1.186630595
1.18680925
1.187058058
1.187373981
1.187747848
1.188164664
1.188605597
1.189053319
1.18949972
1.18994072
1.190370358
1.190770752
1.191038392
1.191219548
1.190708352
1.188941602
1.185846692
1.182338233
1.014753802
1.129165466
1.136548434
1.142910888
1.148168056
1.152996672
1.15673608
1.159564096
1.161748239
1.163368351
1.164488096
1.165201386
1.165593355
1.165749976
1.165750894
1.16566367
1.165541479
1.1654217
1.165327075
1.165269187
1.186013755
1.186044858
1.186126945
1.186266247
1.186468651
1.186736333
1.187064507
1.187439232
1.187837086
1.188231262
1.188592491
1.188885549
1.189077581
1.189100692
1.188809344
1.1882251
1.186614452
1.183062075
1.176139449
1.161525853
1.03273533
1.139384736
1.146771389
1.150889716
1.153969609
1.157015355
1.159456932
1.161476951
1.16312447
1.164404146
1.165317065
1.165895974
1.166201065
1.166296406
1.16624652
1.166111666
1.165941733
1.165775783
1.165641927
1.16555815
1.18550426
1.185527077
1.185588337
1.185696326
1.185859795
1.186084509
1.186369276
1.186701337
1.187056264
1.187401545
1.187690892
1.187873262
1.187902135
1.187679412
1.187095329
1.186222547
1.184421865
1.181042343
1.17459686
1.157086761
1.100544959
1.154276332
1.157388665
1.158806433
1.159860367
1.161333243
1.162608662
1.163796097
1.164875046
1.165754419
1.166402148
1.166802374
1.166982471
1.166987993
1.166866795
1.166669867
1.166443494
1.166226987
1.166052279
1.165942343
1.184965604
1.184982279
1.18502783
1.185111276
1.185242716
1.185430404
1.185675658
1.185967461
1.186283524
1.186587497
1.186824883
1.186946686
1.186894524
1.186575298
1.186002398
1.185256406
1.183985679
1.182550745
1.181899643
1.188238118
1.177706976
1.171791924
1.167581302
1.165979301
1.165252778
1.165442611
1.165789129
1.166253216
1.166807469
1.167295234
1.167659442
1.167862201
1.167899115
1.167798359
1.167594254
1.167327837
1.167041707
1.166774753
1.16656104
1.166426844
1.184411948
1.184424154
1.184457991
1.184522328
1.18462772
1.184783953
1.184993962
1.185249775
1.185532632
1.185804446
1.18601503
1.18612227
1.186059074
1.185782106
1.185385993
1.184908148
1.184366983
1.184476694
1.186322985
1.191262986
1.192730189
1.180773199
1.174610787
1.17149928
1.169719446
1.16900205
1.168727179
1.168650228
1.168768564
1.168917746
1.169016996
1.169026076
1.168918463
1.168707396
1.168417748
1.168081993
1.167738684
1.167425892
1.167178202
1.167023455
1.18385517
1.183864276
1.183889589
1.183939317
1.184023904
1.18415374
1.184333124
1.18455831
1.184814008
1.185064946
1.18527298
1.185399099
1.18538146
1.185224079
1.185027374
1.1848049
1.184707939
1.185245511
1.186859746
1.188249428
1.18701304
1.182759909
1.178162857
1.175101355
1.173062426
1.171897762
1.171274019
1.170859633
1.170662138
1.170547724
1.170425563
1.170258643
1.170018181
1.169703589
1.169334109
1.168936354
1.168544348
1.168194573
1.167920873
1.167750893
1.183302146
1.183309255
1.183328569
1.183367456
1.183435836
1.183544002
1.18369793
1.183898407
1.184133748
1.184376308
1.184600551
1.184768923
1.184832514
1.184812854
1.184782962
1.184732021
1.184762778
1.185148305
1.18589499
1.184013933
1.186277894
1.182748709
1.179645911
1.177217066
1.175383483
1.174147794
1.17339827
1.17282521
1.172433188
1.172134529
1.171844996
1.17153471
1.171181342
1.170778995
1.170342537
1.169895453
1.16946778
1.169093163
1.168803492
1.168624778
1.182749665
1.182755621
1.182770829
1.182801941
1.182858108
1.182949292
1.18308355
1.183265855
1.183488912
1.183735112
1.183988787
1.184214653
1.18437338
1.184480026
1.184574401
1.18461392
1.184616424
1.184733677
1.184930128
1.171893851
1.183405476
1.182209858
1.180171801
1.17839312
1.176928969
1.175841012
1.1751278
1.174527391
1.174048863
1.173641916
1.173241059
1.172825726
1.172385163
1.171914833
1.171428243
1.170947246
1.170497992
1.170111257
1.169815788
1.169634802
1.182179091
1.182184491
1.182196961
1.182222764
1.182270289
1.182349384
1.182470431
1.182642102
1.182862234
1.183122935
1.183415365
1.183706715
1.183959563
1.18417129
1.184351695
1.184432751
1.1843693
1.184258198
1.18404328
1.177101134
1.182525657
1.181715278
1.180285835
1.179021389
1.177939022
1.177092452
1.17651106
1.175969682
1.175486138
1.175035038
1.174572199
1.174088723
1.173586516
1.173067187
1.172545151
1.172042341
1.171582731
1.171193002
1.170898686
1.170719869
1.181557423
1.181562702
1.181573523
1.181596207
1.181638666
1.181711149
1.181826457
1.181996589
1.182224617
1.182510316
1.182848978
1.183209079
1.183548557
1.183843901
1.184080746
1.184180589
1.184066392
1.183802838
1.18341812
1.164320291
1.181359645
1.181228475
1.180229099
1.179352351
1.178608248
1.178019988
1.177607326
1.177169962
1.176731383
1.176280535
1.175791296
1.175267006
1.17472148
1.174164864
1.173614746
1.173094428
1.172626913
1.172235939
1.171943845
1.171767711
1.180851755
1.180857315
1.180867716
1.180889781
1.180931474
1.181004074
1.181122849
1.181302862
1.181551759
1.181874204
1.182267084
1.182698271
1.183117264
1.183480259
1.183754577
1.183866092
1.183728011
1.183376284
1.182846522
1.173439227
1.180157746
1.180877382
1.180139746
1.179554771
1.179087822
1.178729006
1.178478959
1.178156259
1.177782932
1.177354019
1.176856168
1.176304568
1.175723287
1.175131459
1.174551496
1.174009194
1.173527949
1.173129818
1.172834914
1.172658299
1.180054204
1.180060583
1.18007246
1.180097469
1.180144239
1.18022566
1.180359448
1.180563401
1.180848508
1.181221372
1.181677893
1.182183396
1.182677664
1.183098954
1.183402274
1.183519666
1.183380602
1.1829955
1.182448187
1.163338417
1.180029786
1.180613281
1.180091403
1.17972605
1.179469278
1.179286603
1.179169376
1.178949871
1.178641041
1.178238307
1.177737424
1.177163079
1.176547578
1.175918291
1.175303254
1.174731561
1.174228101
1.173814583
1.173510047
1.173328522
1.179199977
1.179208064
1.17922452
1.179257802
1.179317664
1.179418872
1.179581346
1.17982498
1.180162471
1.180599449
1.181128067
1.181709279
1.182273673
1.182745068
1.183069627
1.183187273
1.183052384
1.182662475
1.182090082
1.170877532
1.17870041
1.180468061
1.180087499
1.179876708
1.179763231
1.179699259
1.179681315
1.1795472
1.179295355
1.178918888
1.178420162
1.177829713
1.177185903
1.176522595
1.175873355
1.175270885
1.174742231
1.17430976
1.17399234
1.173803687
1.178359924
1.178371179
1.17839696
1.178446108
1.178529524
1.178663557
1.178869557
1.179168358
1.179572341
1.180083275
1.180686681
1.181337428
1.181958597
1.182464319
1.182796152
1.182900506
1.182756541
1.182368191
1.181820393
1.163994906
1.179107816
1.180337193
1.180061447
1.179946949
1.179919017
1.17992961
1.179986018
1.179924846
1.179727833
1.179385133
1.17890233
1.178313481
1.177658747
1.176976796
1.176305909
1.17568222
1.175135168
1.174688362
1.174360999
1.174166751
1.177608123
1.177624689
1.177666243
1.177741149
1.177860908
1.178042454
1.178307099
1.178674731
1.179154961
1.179742862
1.180414544
1.181117364
1.181769359
1.182280952
1.182593916
1.182663644
1.182485554
1.182083468
1.181527959
1.168932379
1.177487284
1.180164141
1.179942594
1.179877442
1.179894391
1.179952389
1.180066784
1.180072671
1.179934964
1.179641116
1.179197234
1.178635536
1.177996117
1.177319925
1.1766488
1.17602178
1.175470588
1.175020285
1.174690573
1.174495071
1.176989517
1.177014032
1.177078862
1.177190839
1.177361072
1.177605489
1.177943209
1.178390571
1.178951585
1.179612042
1.180336562
1.181064284
1.181711068
1.182190548
1.18245167
1.18246526
1.182229323
1.181795408
1.181233192
1.164876172
1.177858282
1.179915846
1.179724639
1.179680925
1.179713949
1.179803709
1.179960786
1.180024983
1.179948748
1.179716563
1.179331246
1.178820495
1.178220948
1.177574315
1.176924684
1.176313169
1.175773341
1.175331577
1.175008027
1.174816166
1.176516724
1.176551727
1.176646665
1.176805924
1.177039036
1.177359037
1.17778033
1.178312775
1.178952052
1.179672959
1.180428046
1.181148939
1.181753097
1.182164229
1.182344378
1.182289314
1.181991394
1.181517421
1.180934542
1.167595273
1.176129425
1.179651131
1.179481619
1.179438843
1.179479266
1.179580219
1.179755059
1.179860092
1.179835682
1.179664194
1.179342956
1.17889282
1.178345552
1.177742264
1.177127891
1.176544533
1.17602688
1.175602193
1.175290852
1.175106092
1.176197145
1.176243993
1.176372275
1.176583339
1.176884
1.177282697
1.177786945
1.178397825
1.179101074
1.179860541
1.180618479
1.181302018
1.181834227
1.182153616
1.182240173
1.182117491
1.181774562
1.181285739
1.180683103
1.165564569
1.176454899
1.179457174
1.179304522
1.1792707
1.179297226
1.179383117
1.179551841
1.17966986
1.179675324
1.179547795
1.179277842
1.178880162
1.178381207
1.177820571
1.177242717
1.176689627
1.176196353
1.175790582
1.175492715
1.175315734
1.176059549
1.176116982
1.176274479
1.176530283
1.176887831
1.17735022
1.177917398
1.178581286
1.179318242
1.180083522
1.180813264
1.181434536
1.181879317
1.18210281
1.182101614
1.181924969
1.181566154
1.181100037
1.180618958
1.166428102
1.175459525
1.179436291
1.179262642
1.179212928
1.179234307
1.179273509
1.179418782
1.179526184
1.179534867
1.179425355
1.179183478
1.17881707
1.17834926
1.177817426
1.177264679
1.17673226
1.176255319
1.175861923
1.175572648
1.175400504
1.176148435
1.176211225
1.176383227
1.176660597
1.177044154
1.177532995
1.178121404
1.178794452
1.179521969
1.180254557
1.180927068
1.181470427
1.181826785
1.18196617
1.181901091
1.181650849
1.181267744
1.180820558
1.180185651
1.164749819
1.176823244
1.179330534
1.179224781
1.179196051
1.179221944
1.179252385
1.179371823
1.179453371
1.179447489
1.179333886
1.17909595
1.178737233
1.178278409
1.177754624
1.17720743
1.176677536
1.176200722
1.175806117
1.175515205
1.175341737
1.176482073
1.176541041
1.176702944
1.176964608
1.177327285
1.177790048
1.178345935
1.178977416
1.179651564
1.180317885
1.180913141
1.181373808
1.181650964
1.181725258
1.181616773
1.181346555
1.180970159
1.180538552
1.179828591
1.165435904
1.176321561
1.179298761
1.179237508
1.179232491
1.179255419
1.179278551
1.179370439
1.179425126
1.179397653
1.179268084
1.17901899
1.178651356
1.178184064
1.177650182
1.177089995
1.176544445
1.176050938
1.175640702
1.175337169
1.175155733
1.17699908
1.177044241
1.177170058
1.177377902
1.177673948
1.1780623
1.178539651
1.179089889
1.179680105
1.180260395
1.180770222
1.181151186
1.181361002
1.181386744
1.18125061
1.180970961
1.180610573
1.180214076
1.179417789
1.165912978
1.175809116
1.179231525
1.179189549
1.179204465
1.179229804
1.179259372
1.179333363
1.179366104
1.179318134
1.179170377
1.178905903
1.178524343
1.178042915
1.177492602
1.176912619
1.17634458
1.175827959
1.175396524
1.175076105
1.174884146
1.177528616
1.177555286
1.17763295
1.177769848
1.177979567
1.178273753
1.178654907
1.179109924
1.179606788
1.180096385
1.18052062
1.18082554
1.180974191
1.180957942
1.180798935
1.180510626
1.180163911
1.179800779
1.178931409
1.16628005
1.175067549
1.179011205
1.178994854
1.179027555
1.179058608
1.179099207
1.179159725
1.179172749
1.179105407
1.178940744
1.178663565
1.178273084
1.177784814
1.177227409
1.176638584
1.176059887
1.175531814
1.175089541
1.174760321
1.174562871
1.177812933
1.177826809
1.177870317
1.177956537
1.178103561
1.178327359
1.178633464
1.179010012
1.179425222
1.179830933
1.180172194
1.18040046
1.180485035
1.180422125
1.180234383
1.179930444
1.179588307
1.179250105
1.178315231
1.166467062
1.174113426
1.178577483
1.178592309
1.178637125
1.178669827
1.178714163
1.178756445
1.178744704
1.17865423
1.178472014
1.178186081
1.177796235
1.177316432
1.176772625
1.176199894
1.175637747
1.175125146
1.174696037
1.174376745
1.174185398
1.177586941
1.17760298
1.177649374
1.177738095
1.177883948
1.178098942
1.178384576
1.178725688
1.179089051
1.179428133
1.179693262
1.179844067
1.179858896
1.179741184
1.179516249
1.179189681
1.178844997
1.178526802
1.177541377
1.166454612
1.173007363
1.177911513
1.177958968
1.178004451
1.178027466
1.178060397
1.17807261
1.178025415
1.177903803
1.177700431
1.177407867
1.177027423
1.176571692
1.176063427
1.175533566
1.175017141
1.174548673
1.17415806
1.173868297
1.173695081
1.176685677
1.176720563
1.176811571
1.176963558
1.17718016
1.177460738
1.177794967
1.178158916
1.17851539
1.178819602
1.179029003
1.179113978
1.179064601
1.178893992
1.178632431
1.178285101
1.177939169
1.177642528
1.17660213
1.166193099
1.171862491
1.177047759
1.177125093
1.177157113
1.1771567
1.177161851
1.1771313
1.177038357
1.176878447
1.176650693
1.17635267
1.175987439
1.175565995
1.17510716
1.174636323
1.174182227
1.173773215
1.173433825
1.173182909
1.17303329
1.175133656
1.175197609
1.175359598
1.175614962
1.175952999
1.176356417
1.176798787
1.177243612
1.177646971
1.177964211
1.178159159
1.178212689
1.178126665
1.177924402
1.177642187
1.177287751
1.176949536
1.176677165
1.175554199
1.165720964
1.170787172
1.176071939
1.176173809
1.176181214
1.176148334
1.176115328
1.176036796
1.175896751
1.175700007
1.175451476
1.175152899
1.174808274
1.174426151
1.174020551
1.173610522
1.173218099
1.172865666
1.17257328
1.172356915
1.172227791
1.173178222
1.173271706
1.173507233
1.173872399
1.174344709
1.174892386
1.175474001
1.176040183
1.176538569
1.176921753
1.177156216
1.177229258
1.17715084
1.176951914
1.176673746
1.17632959
1.176006058
1.175750977
1.174497699
1.165130071
1.169832015
1.175083954
1.175207193
1.175187612
1.175125387
1.175058119
1.174943351
1.174773457
1.174559028
1.174308437
1.174025498
1.17371352
1.17337749
1.173026098
1.172672248
1.1723323
1.172024469
1.171766575
1.171574008
1.171458326
1.171252684
1.171368383
1.171660542
1.172112923
1.172696862
1.173372
1.174086811
1.17478191
1.175396746
1.17587879
1.176192651
1.176326272
1.176291851
1.17612329
1.175864153
1.175535851
1.175219595
1.174957902
1.173521678
1.164522548
1.168978232
1.174150871
1.174301251
1.174265358
1.17419466
1.174118887
1.174003886
1.173846788
1.17365785
1.173445203
1.173211932
1.172958884
1.172686804
1.172399303
1.172104308
1.171814326
1.171545527
1.171315545
1.171140906
1.171034778
1.169871435
1.169998443
1.170320725
1.170821643
1.171471475
1.17222705
1.173032165
1.17382155
1.174528639
1.175095733
1.175483457
1.175676747
1.175685666
1.175542966
1.175291625
1.174962682
1.1746288
1.174325533
1.172675613
1.163974542
1.168169897
1.173300049
1.173498698
1.173470614
1.173429407
1.173392781
1.173335384
1.1732549
1.173154143
1.173036836
1.172902723
1.17274909
1.172572727
1.172373304
1.172155399
1.171929278
1.171710266
1.171516451
1.171365659
1.171272589
1.169460897
1.169588664
1.169914379
1.170422167
1.171083286
1.17185456
1.172678549
1.173487924
1.174213947
1.174797149
1.175196678
1.175395721
1.175402019
1.175245737
1.174967199
1.17460606
1.174224358
1.173850957
1.172001492
1.163562173
1.167391692
1.172567253
1.172851059
1.172861592
1.172893145
1.172950005
1.173010724
1.173069938
1.173117678
1.173150265
1.173162803
1.173149233
1.173103721
1.173023634
1.17291156
1.172776117
1.172631432
1.172494916
1.172384215
1.172314187
1.170155574
1.17027667
1.170585821
1.171066383
1.171689006
1.17240988
1.173171545
1.173908036
1.174553854
1.175054257
1.175373356
1.17549783
1.175436299
1.175217102
1.174876499
1.174458811
1.174014788
1.173567201
1.171579724
1.163404972
1.166736266
1.172046094
1.172458642
1.172531229
1.172662089
1.172844129
1.173053032
1.173279055
1.173498806
1.173701306
1.173878035
1.174021283
1.17412446
1.174183992
1.174200887
1.174181359
1.174136528
1.174080663
1.174028648
1.173993313
1.17166867
1.171779592
1.172061471
1.172494199
1.173044759
1.173666956
1.174303997
1.174894707
1.175382331
1.175723243
1.17589257
1.175885386
1.1757145
1.175407907
1.17499733
1.174527125
1.174038104
1.173546734
1.171513918
1.163643922
1.166393335
1.171882251
1.172458031
1.172594923
1.17281447
1.173103504
1.173431555
1.173787014
1.174138402
1.174471486
1.174777455
1.175049468
1.175281745
1.175470216
1.175613643
1.175714207
1.1757777
1.17581261
1.175828491
1.175834032
1.173374989
1.173475111
1.173726979
1.174106038
1.174574746
1.17508479
1.175581611
1.176011185
1.176327799
1.176500546
1.17651649
1.176379896
1.176109045
1.17573343
1.175282027
1.174797515
1.174314694
1.173842648
1.171863646
1.164364505
1.166563339
1.172216239
1.172968959
1.173150251
1.173409717
1.173735648
1.174094572
1.174479189
1.174859426
1.175224363
1.175569185
1.175890299
1.176183628
1.176444495
1.176668664
1.176853251
1.176997614
1.177103411
1.177173933
1.177212975
1.174612613
1.174703983
1.17493142
1.175267947
1.175673972
1.176101388
1.176499045
1.1768193
1.177024634
1.177092614
1.177017965
1.176811363
1.176496274
1.176105937
1.175670408
1.17523267
1.174826878
1.174452727
1.172604937
1.165542799
1.167351603
1.173112124
1.174036127
1.174236813
1.174475349
1.174748287
1.175026384
1.175313328
1.1755899
1.175854913
1.176111461
1.176361322
1.176603173
1.176832415
1.177042584
1.177226889
1.177379852
1.177498172
1.177580738
1.177627997
1.175003356
1.175092106
1.175312089
1.175636744
1.176027122
1.17643636
1.176815109
1.177117867
1.177309408
1.177369688
1.177296207
1.177103297
1.176819274
1.176482816
1.176128031
1.17580037
1.175536784
1.175323606
1.17363325
1.167039806
1.168691633
1.174489486
1.175566305
1.175776698
1.175957499
1.17611521
1.176229868
1.176318463
1.176377864
1.176420744
1.176461242
1.17650907
1.176568026
1.176636198
1.176707991
1.176776433
1.176835481
1.17688136
1.176912792
1.176930315
1.174592508
1.174688071
1.174925668
1.175279728
1.175711551
1.176173244
1.176613113
1.176982733
1.177244507
1.17737755
1.177380602
1.177271321
1.1770829
1.176859078
1.176637066
1.176463139
1.176375757
1.176341274
1.174765927
1.168617418
1.170324552
1.176083027
1.177280098
1.177508832
1.177637082
1.177676042
1.17761299
1.177472857
1.177266897
1.177021704
1.176764032
1.17651434
1.17628524
1.176081871
1.175904357
1.175750781
1.175619948
1.175512889
1.175432889
1.175384309
1.173765734
1.173875504
1.174149527
1.174561197
1.175069152
1.175621055
1.176159774
1.17663203
1.176997552
1.177235742
1.177348195
1.177356685
1.177298087
1.177217513
1.177149892
1.177136741
1.177213343
1.177318655
1.175756764
1.169984544
1.171874603
1.177505062
1.178769971
1.179027988
1.179138179
1.179107831
1.178923379
1.178606041
1.178172936
1.177659415
1.177103194
1.176536896
1.17598548
1.17546582
1.174988803
1.174562394
1.174194523
1.173894585
1.173673185
1.173540459
1.173034565
1.173157178
1.173463536
1.173923978
1.17449284
1.175113168
1.175724256
1.176271593
1.176716532
1.177042329
1.17725495
1.177378871
1.177450175
1.177508568
1.177579404
1.177693796
1.177880333
1.178045391
1.176371405
1.170896559
1.173011742
1.178420608
1.179686305
1.179970583
1.180096897
1.180062801
1.17984594
1.179452353
1.178894289
1.178207365
1.177435176
1.176621018
1.175803441
1.175013792
1.174276639
1.173611928
1.173037485
1.17257054
1.17222763
1.172023049
1.172804894
1.17292807
1.173235225
1.173694393
1.174258319
1.174870681
1.175474558
1.176022063
1.176482428
1.176845676
1.177120979
1.177330736
1.177503321
1.177665958
1.177829425
1.178012712
1.178238173
1.178376649
1.17648475
1.171255592
1.173591275
1.178700898
1.179902754
1.18019254
1.180344777
1.180347864
1.180168695
1.179793986
1.179224949
1.178490629
1.177634452
1.176705969
1.175754556
1.174824285
1.173951724
1.173166253
1.172491726
1.171948131
1.17155235
1.1713178
1.173224219
1.173329945
1.173592499
1.173981417
1.174454147
1.174963228
1.175464373
1.175923896
1.176323423
1.176660307
1.1769439
1.177189453
1.177412624
1.177625141
1.177823351
1.178016646
1.17822353
1.178275081
1.176108709
1.171121422
1.173663848
1.178426811
1.179514561
1.179775542
1.179932055
1.179969965
1.179851051
1.179548333
1.179053772
1.17838802
1.177589565
1.176707514
1.175794467
1.174899528
1.174063878
1.173319237
1.17268858
1.17218797
1.171828486
1.171617616
1.174166699
1.17423986
1.174420167
1.174683738
1.174999307
1.175334851
1.175663822
1.175969416
1.176245731
1.176495616
1.176726268
1.17694452
1.17715427
1.177355148
1.177534101
1.177694913
1.177852332
1.177789189
1.175341507
1.170635795
1.173377293
1.177773809
1.178711948
1.178904692
1.179024464
1.179063978
1.178990277
1.178774597
1.178406767
1.177900739
1.177286164
1.176603133
1.175896088
1.175207102
1.174571089
1.174013495
1.173550402
1.173190268
1.17293643
1.172789534
1.175330575
1.175366037
1.175449579
1.17556939
1.175709608
1.175855717
1.175997795
1.176131949
1.176259612
1.176385097
1.176512463
1.176643103
1.176775568
1.176905566
1.177018398
1.177116114
1.177205475
1.177004762
1.174285895
1.16993121
1.172872242
1.176891903
1.177657172
1.177754813
1.177807427
1.177821147
1.177777191
1.177655994
1.177451594
1.177172461
1.176835345
1.176462859
1.176080304
1.175711602
1.175376313
1.17508793
1.174853735
1.17467591
1.17455341
1.174483845
1.226211739
1.075695745
1.082985805
1.20755714
0.959461506
0.9592858253
1.097227232
1.076285125
1.196347585
0.9904102719
0.960454466
0.9935487828
1.115275962
1.097921713
1.182836771
1.010042596
0.9912930258
1.014233508
1.12830053
1.115840071
1.16237523
1.024768318
1.010512925
1.031922192
1.138381473
1.128734841
1.156341751
1.077880559
1.025438501
1.247112177
1.219782333
1.084855595
1.15854607
1.027716529
1.026523647
1.207075885
1.207651525
1.225317819
0.9366725571
1.071832117
1.053287914
1.196825433
1.196363064
1.207241982
1.201825668
1.200860263
1.203785145
0.9788607648
1.101260935
1.089365523
1.186136608
1.182899738
1.196000846