/*--------------------------------*- C++ -*----------------------------------*\
| =========                 |                                                 |
| \\      /  F ield         | OpenFOAM: The Open Source CFD Toolbox           |
|  \\    /   O peration     | Version:  v1812                                 |
|   \\  /    A nd           | Web:      www.OpenFOAM.com                      |
|    \\/     M anipulation  |                                                 |
\*---------------------------------------------------------------------------*/
FoamFile
{
    version     2.0;
    format      ascii;
    class       volScalarField;
    location    "0.01";
    object      T;
}
// * * * * * * * * * * * * * * * * * * * * * * * * * * * * * * * * * * * * * //

dimensions      [0 0 0 1 0 0 0];


internalField   nonuniform List<scalar> 
132908
(
301.2711544
301.2982911
301.3650812
301.4613757
301.5732725
301.6853907
301.7836194
301.8572339
301.900037
301.9103998
301.8903404
301.8440082
301.776063
301.6904009
301.5894985
301.4744157
301.3452939
301.2020955
301.0453484
300.8767411
300.6994949
300.5184747
300.3399834
300.1713709
300.022364
299.8981455
299.8057796
299.7476047
299.7212781
299.7190502
299.7285777
299.7354401
299.7269876
299.6945678
299.6365753
299.557938
299.4686006
299.3813357
299.3091523
299.263072
301.255365
301.2807366
301.3438131
301.4356506
301.5439718
301.654853
301.7550193
301.8337209
301.883924
301.9026647
301.8905747
301.850771
301.7874457
301.7045593
301.6049765
301.4902145
301.3607588
301.2167488
301.0587868
300.8886664
300.7098794
300.5278069
300.3494855
300.1831181
300.0387397
299.9217286
299.8380338
299.787974
299.7665556
299.763608
299.7656124
299.7588514
299.7330754
299.682903
299.6097021
299.5202512
299.4248996
299.335569
299.2636769
299.2185501
301.2731189
301.2940966
301.3465133
301.4243267
301.5187192
301.6190471
301.7143399
301.7947263
301.8525851
301.8832295
301.8850088
301.8588305
301.8072393
301.7333191
301.6397433
301.5282563
301.3997073
301.254568
301.0937396
300.9194033
300.7356738
300.5488468
300.3670579
300.1997309
300.0567188
299.9436515
299.8647074
299.8177615
299.7952199
299.785225
299.7743566
299.7509313
299.7079415
299.6433419
299.5608076
299.4678981
299.3742052
299.2897673
299.2236047
299.1827982
301.3103131
301.3255402
301.3640163
301.4231078
301.4982162
301.5828328
301.6691226
301.748783
301.8140457
301.8585977
301.8782128
301.8709471
301.8368502
301.777272
301.6940062
301.5886046
301.4621217
301.3153861
301.149745
300.9680453
300.7754554
300.5797258
300.3905668
300.218864
300.0745338
299.9626825
299.8853974
299.83787
299.8101652
299.7894746
299.7633444
299.7226628
299.6637148
299.5872444
299.4985931
299.4054552
299.3162182
299.2388106
299.1798067
299.1440934
301.352429
301.3623235
301.3878012
301.4290763
301.4852401
301.5536159
301.6295502
301.7066928
301.7777274
301.8353483
301.8732302
301.8867443
301.8732309
301.8317793
301.7626203
301.666416
301.5438566
301.3957074
301.2235187
301.0308753
300.8244741
300.6143399
300.4126014
300.232267
300.0834308
299.970207
299.8922943
299.8421329
299.8078057
299.7761446
299.7360235
299.6807826
299.6091375
299.5238694
299.4312126
299.3386725
299.2535393
299.1820488
299.1288853
299.0972694
301.3875127
301.3938656
301.4105677
301.4393711
301.4815528
301.5370038
301.6035685
301.6768662
301.7506708
301.8177279
301.8707668
301.9034372
301.9109403
301.8901257
301.8390349
301.7563979
301.6416067
301.4942633
301.3149432
301.1073867
300.8802717
300.647347
300.4250043
300.2295539
300.0717326
299.9542635
299.8742341
299.821265
299.7815454
299.7417458
299.6919468
299.6273753
299.5482109
299.4581412
299.3636441
299.2718511
299.189299
299.1212551
299.0713901
299.0420573
301.4090044
301.4141374
301.4276038
301.4512052
301.4865614
301.5344144
301.5939691
301.6625118
301.7354532
301.8067877
301.8698328
301.9180395
301.9455902
301.9476161
301.9199981
301.858046
301.7585772
301.6177717
301.4325413
301.2053625
300.9471034
300.6774744
300.4214236
300.2006248
300.0276907
299.9025165
299.8201839
299.7664656
299.7248812
299.6819142
299.6285727
299.560997
299.4803184
299.3901976
299.2967962
299.206689
299.1259101
299.0593876
299.0106228
298.9819262
301.4159569
301.421871
301.4369431
301.4618749
301.4971104
301.5426762
301.5979517
301.6613962
301.7303778
301.8011728
301.8691685
301.9292123
301.9759612
302.0040105
302.0074981
301.9705432
301.8994075
301.7815653
301.602507
301.3579688
301.0588796
300.7342561
300.4238744
300.1612887
299.9642928
299.803131
299.7206246
299.6714348
299.6339719
299.5941772
299.543735
299.4794914
299.4029401
299.3174622
299.2286393
299.1423553
299.0641996
298.9990487
298.9507157
298.9219985
301.4112763
301.4191155
301.4386281
301.468891
301.5083809
301.5554767
301.6088544
301.6676118
301.7310742
301.7983648
301.8679745
301.9374455
302.0032185
302.0606292
302.1036157
302.1071461
302.0796859
302.0002746
301.8364005
301.5670355
301.1970395
300.7734097
300.3701479
300.0450683
299.8191078
299.6400635
299.5682551
299.5328421
299.508195
299.4793033
299.4382784
299.3827822
299.3148381
299.2377523
299.1566974
299.0769654
299.0037091
298.9417126
298.8950646
298.8670312
301.3992322
301.4091748
301.4336519
301.4702108
301.5153788
301.5657124
301.6188354
301.6740474
301.7322862
301.7954483
301.8654372
301.9432181
302.0282492
302.1180123
302.2075589
302.2661544
302.3107805
302.3067434
302.1920741
301.9016651
301.4090141
300.7990245
300.2328374
299.8180666
299.5694862
299.3949824
299.3545003
299.3492512
299.3500174
299.3411925
299.3161308
299.2739771
299.2178079
299.1515141
299.0804261
299.0096508
298.9440354
298.8880806
298.8457069
298.8201077
301.3834205
301.394896
301.423053
301.464419
301.5141887
301.5675629
301.621239
301.674425
301.7290725
301.7892202
301.8597364
301.9450311
302.0482309
302.1709861
302.3133832
302.4412197
302.5860673
302.7158635
302.736538
302.4741381
301.7550523
300.7462663
299.8946539
299.3909254
299.1665738
299.0475233
299.0748762
299.1236737
299.1652314
299.1864968
299.1838453
299.1588659
299.1165921
299.0623042
299.0022507
298.941937
298.8861565
298.8389549
298.8035331
298.7822868
301.3657613
301.3778164
301.4074251
301.4507741
301.5025958
301.5575382
301.6117859
301.6643209
301.7174015
301.7761421
301.8474368
301.9386443
302.0565909
302.2076481
302.3990787
302.6041601
302.8814118
303.2171647
303.5470405
303.5452888
302.4239053
300.3335327
299.0639659
298.6152136
298.5590459
298.5967204
298.737866
298.8675442
298.9649366
299.0249883
299.0499227
299.0448707
299.0177566
298.9759062
298.9270933
298.8777259
298.8327861
298.795787
298.7688511
298.7530981
301.3464684
301.3581113
301.3868252
301.4290983
301.4800225
301.534505
301.5887132
301.6413412
301.6943057
301.7527647
301.8243302
301.9180185
302.043864
302.2130578
302.4390768
302.7044924
303.098868
303.6665292
304.4775103
305.6878311
304.194607
298.0889761
297.1444415
297.3822961
297.7617669
298.0828396
298.376865
298.6050471
298.7666284
298.8697111
298.92417
298.9401046
298.9284868
298.8989643
298.8610351
298.8221877
298.7877002
298.7605907
298.7419091
298.7315127
301.3245616
301.3350004
301.3609323
301.3996059
301.4470871
301.4991228
301.5522438
301.6048844
301.6581958
301.7163645
301.7864961
301.8782287
302.0026973
302.1725337
302.4055155
302.6967094
303.1402432
303.7942722
304.8515665
307.1058036
290.4914577
294.394941
295.9999047
296.9575805
297.6093793
298.0516036
298.3723886
298.5931038
298.7355485
298.817107
298.8525321
298.8554794
298.8375809
298.8097162
298.7802033
298.7545535
298.7354428
298.7232043
298.716893
301.2985483
301.3073103
301.3293113
301.3627978
301.4051108
301.4531133
301.5039157
301.555843
301.608848
301.6657774
301.7323213
301.8166234
301.9291224
302.0827165
302.2909136
302.550933
302.9394918
303.4666577
304.1813387
305.0020831
289.7068447
293.2402054
295.2060776
296.4379002
297.2990922
297.8252303
298.2058338
298.4662359
298.6365338
298.7382386
298.789096
298.804358
298.7965949
298.7773668
298.7553157
298.7360075
298.7220266
298.7135406
298.7094518
301.2670384
301.2739701
301.2916613
301.3193637
301.3556911
301.3986715
301.4460729
301.4959762
301.5475276
301.6018196
301.6621561
301.734589
301.82724
301.9473055
302.1020777
302.2956705
302.5595276
302.8447629
303.1289075
303.1823596
328.2599608
291.9961839
293.7934319
295.2472497
296.3455832
297.2205312
297.7412404
298.1322253
298.4026512
298.5830693
298.6948118
298.7548056
298.7786131
298.7786004
298.765883
298.748891
298.7330932
298.7212097
298.7137596
298.7100623
301.2292459
301.2344659
301.2480828
301.2701877
301.3004804
301.3379954
301.3810761
301.4278207
301.4766075
301.5266679
301.5791643
301.6370272
301.7035283
301.7817083
301.87102
301.9680495
302.0693176
302.1192033
302.1188948
302.0787356
327.400585
293.8607606
294.8695611
295.8174877
296.6207294
297.3701289
297.8072428
298.1568556
298.4087956
298.5803877
298.6899818
298.7521027
298.7797496
298.7841137
298.7751545
298.7605107
298.7454697
298.7330553
298.7244434
298.7197138
301.1852134
301.1889821
301.1990867
301.2162309
301.2409277
301.2729662
301.3112239
301.3539186
301.3987959
301.4437015
301.4877124
301.5301683
301.5701577
301.6060794
301.6249862
301.6260324
301.5767229
301.3898553
301.0609112
300.7215996
325.661502
295.2168987
295.9796828
296.6009074
297.1385771
297.68206
297.9979041
298.2730064
298.4793033
298.6268471
298.7236464
298.7804083
298.8069753
298.8118608
298.8034798
298.7884889
298.7718537
298.7569526
298.7457065
298.7390478
301.1357092
301.138315
301.1455526
301.1585251
301.1782814
301.2051547
301.2385058
301.2767074
301.3171235
301.3567753
301.3927218
301.4213659
301.4390544
301.4394672
301.4039756
301.3348708
301.1751648
300.8113454
300.1008263
298.6221585
321.5086184
296.3062855
297.0531715
297.4390106
297.7440112
298.096855
298.2702218
298.456421
298.6041242
298.7154593
298.7917973
298.8370008
298.8575592
298.8591929
298.8482842
298.8305298
298.8105283
298.791905
298.7772441
298.7682431
301.0819007
301.083596
301.0885408
301.0980718
301.1135615
301.1357464
301.1644054
301.1980886
301.2341429
301.2691496
301.2985645
301.3173653
301.3206603
301.2990955
301.2361126
301.1455127
300.9672631
300.6254691
299.9767969
298.1940796
308.7465602
297.8693568
298.1604959
298.2655257
298.3530953
298.5342952
298.5833094
298.6795796
298.7669343
298.8372644
298.8879695
298.9173365
298.9277803
298.9227818
298.9067471
298.8843426
298.859821
298.8368946
298.8186078
298.8072339
301.0250204
301.0260179
301.0291746
301.0359394
301.0478705
301.0660174
301.0904894
301.1200945
301.1524942
301.1840022
301.2093488
301.2237961
301.221288
301.1929279
301.132845
301.0614985
300.9379284
300.7966119
300.7366124
301.4081634
302.6465486
299.6716529
299.2151105
299.0088121
298.9052309
298.9446623
298.8983775
298.9182075
298.9511671
298.982087
299.0052436
299.0162137
299.0137773
298.9995577
298.9764932
298.9482161
298.9186044
298.8913218
298.8696193
298.8561087
300.9661911
300.9666811
300.9685168
300.9731691
300.9823
300.997191
301.0182105
301.0445768
301.0744063
301.1039187
301.1283153
301.1434604
301.1423069
301.1207686
301.0792515
301.0395845
300.99042
301.0054038
301.1946818
301.7174204
302.2371708
300.5926301
299.9379644
299.5756712
299.3581583
299.2962922
299.1907208
299.1546331
299.1434821
299.1405555
299.1373779
299.1291695
299.1124773
299.0875023
299.0562619
299.0215353
298.9867553
298.9554319
298.9307832
298.9155175
300.9063673
300.9065349
300.90752
300.9107524
300.9179446
300.9305213
300.9490872
300.9733762
301.0019106
301.0311898
301.0575224
301.0768126
301.0822853
301.0742037
301.0519599
301.0403566
301.0350055
301.0890185
301.2476284
302.0751431
301.3661375
300.8004681
300.2993936
299.9406435
299.6940505
299.5814741
299.4468476
299.3775349
299.3349743
299.3056072
299.27975
299.2531051
299.2221465
299.1859615
299.1461485
299.1049332
299.0652632
299.0303984
299.003366
298.9867578
300.8461885
300.8462184
300.8468433
300.8494136
300.8556484
300.8670284
300.8843877
300.9079334
300.9365001
300.9672088
300.997356
301.0225951
301.0371089
301.0424362
301.0343609
301.0396906
301.0437896
301.0749137
301.1371595
301.611621
301.3521726
300.7974777
300.4436285
300.1495552
299.9254487
299.803944
299.6642066
299.5806569
299.5196531
299.471775
299.4282516
299.3857273
299.3416663
299.2949468
299.2468874
299.199511
299.1554149
299.1175256
299.0885977
299.0709844
300.7856138
300.7856901
300.7864648
300.789182
300.7955194
300.8069327
300.8244288
300.8485144
300.8782568
300.9114822
300.9460735
300.977505
301.0006393
301.0160183
301.0161718
301.027574
301.0232316
301.0185993
301.0173896
304.5325999
300.9905682
300.7309419
300.4846882
300.2599707
300.0785621
299.9730068
299.8446746
299.7607337
299.6926647
299.6341869
299.5786955
299.5240111
299.4690822
299.4132245
299.3578104
299.3049007
299.2568079
299.2162519
299.1857084
299.1672611
300.7235325
300.7238356
300.7252663
300.7289264
300.7363859
300.7489848
300.767775
300.7933443
300.8249158
300.860895
300.8994501
300.9360403
300.9656585
300.9870054
300.9905133
301.000868
300.9833135
300.9485482
300.9017539
302.3427201
301.1258595
300.6617534
300.480375
300.3135691
300.1779659
300.0992882
299.9914289
299.9161159
299.849651
299.7874669
299.725552
299.6628021
299.5997331
299.536511
299.4747947
299.4168844
299.3650917
299.3219268
299.289735
299.2704104
300.6579731
300.6586612
300.6611778
300.6664257
300.6757791
300.6903577
300.7111039
300.7385183
300.771928
300.8101571
300.8515536
300.891711
300.9254002
300.9494559
300.9532843
300.9595732
300.9307434
300.8771412
300.812608
305.636789
300.8701046
300.5912719
300.4584216
300.3374068
300.243079
300.1931897
300.1086734
300.0465615
299.9870965
299.9264002
299.8622108
299.794868
299.726083
299.6570267
299.5898447
299.5272184
299.4716441
299.4256464
299.3915316
299.371108
300.5874994
300.5886652
300.5924886
300.5996156
300.611139
300.6278772
300.6505642
300.6795694
300.7143438
300.7540485
300.7972345
300.8397428
300.8760062
300.9012534
300.9044962
300.9061045
300.8714835
300.809801
300.7345445
302.8286674
301.1047408
300.5370971
300.4355655
300.3496343
300.288838
300.2640244
300.2013291
300.1532494
300.1028668
300.0461996
299.9823188
299.912566
299.8396927
299.7658256
299.6937142
299.6265073
299.5670277
299.5179459
299.4816425
299.4599376
300.5133796
300.5149961
300.5199908
300.528746
300.5420459
300.5604112
300.5843948
300.6143349
300.6499075
300.690598
300.7351894
300.7798036
300.8185365
300.8452752
300.848908
300.8475966
300.8124392
300.7513189
300.6789329
305.4217771
300.8676375
300.4970153
300.4204864
300.360422
300.3243094
300.3177197
300.2729686
300.2372581
300.1955887
300.1435079
300.0809455
300.0100044
299.9342149
299.8565103
299.7802533
299.7090614
299.6461115
299.5942598
299.5559801
299.5331145
300.4407815
300.4426767
300.4482974
300.4578575
300.4719115
300.4908136
300.5150956
300.5452587
300.5813272
300.6230817
300.6694602
300.7167626
300.7587478
300.788149
300.7935697
300.7915809
300.7593377
300.7028966
300.6332581
303.2629984
301.1570385
300.4738677
300.4132493
300.3705588
300.3505327
300.3545729
300.3235858
300.297761
300.263486
300.2158149
300.1553183
300.0844414
300.0073869
299.927626
299.8490333
299.7755896
299.7107298
299.6574214
299.6181549
299.5947368
300.3773056
300.3792112
300.3846503
300.3938699
300.4073818
300.4256048
300.4492757
300.4792461
300.5159427
300.5593141
300.6082153
300.6588589
300.7046082
300.7372003
300.7449167
300.7429871
300.7141385
300.6624378
300.5988035
304.9880018
300.9413992
300.455633
300.4059498
300.3733503
300.3622895
300.3708731
300.3504773
300.3325958
300.3048803
300.2620547
300.2050452
300.136521
300.0609348
299.9820961
299.9042081
299.831432
299.7672867
299.7147095
299.6760865
299.653105
300.3292006
300.3308807
300.3354193
300.3433481
300.3553621
300.3721875
300.3949495
300.4249275
300.4628668
300.5086245
300.5605873
300.6144906
300.6632107
300.6977421
300.706229
300.7028585
300.6749524
300.6250097
300.5631402
303.6017261
301.2717789
300.4342413
300.3899177
300.3618785
300.3549174
300.3645573
300.3526871
300.341713
300.3206108
300.2839416
300.2327016
300.169614
300.0989077
300.0245585
299.9509016
299.8820913
299.8215619
299.7720887
299.7358505
299.7143496
300.2979911
300.2993926
300.3028072
300.3092538
300.3197744
300.3355473
300.3581308
300.3891358
300.4293808
300.4782623
300.533256
300.5892292
300.6385381
300.6719116
300.678007
300.6703086
300.6393097
300.5876633
300.5264697
304.524769
301.0811457
300.4045361
300.3629956
300.3363832
300.330253
300.3402901
300.3353335
300.3303785
300.3161209
300.2869768
300.2437785
300.1886815
300.1257099
300.0587321
299.9920583
299.9297114
299.8749426
299.8302971
299.7976944
299.7784192
300.2804507
300.2817811
300.2845624
300.2903611
300.3005873
300.316842
300.3409762
300.374658
300.4184052
300.4707689
300.5279764
300.5838348
300.630392
300.6588017
300.6590071
300.6443044
300.607224
300.5517635
300.4891916
303.7331295
301.390245
300.3711033
300.3316263
300.3044059
300.2982876
300.309555
300.3092009
300.3089423
300.3009561
300.2795594
300.2451382
300.1990386
300.1448951
300.086367
300.0276491
299.9725902
299.9242488
299.8849446
299.856342
299.8395073
300.2719248
300.2735805
300.2767757
300.2835015
300.2953958
300.3142734
300.3419789
300.3798508
300.4277172
300.4830356
300.5407508
300.5938168
300.6344196
300.6548096
300.646997
300.6241428
300.5803256
300.5228307
300.459559
304.1166805
301.2207091
300.3429018
300.3052902
300.2787223
300.2710739
300.2848599
300.2869573
300.2892435
300.2858363
300.2707987
300.2437704
300.2055827
300.1591397
300.1079474
300.0560558
300.0071671
299.9642108
299.9293557
299.904077
299.8892677
300.2698568
300.2722043
300.2768869
300.2860533
300.3013346
300.3244569
300.3569111
300.3993547
300.4506806
300.5072803
300.5631664
300.6109747
300.643561
300.6547558
300.638804
300.6087781
300.5599286
300.5040617
300.4545103
303.7813143
301.3867121
300.3326993
300.2935718
300.2659505
300.2588365
300.274787
300.2774817
300.2804421
300.2792333
300.2679452
300.2455733
300.2123834
300.1707434
300.1239866
300.076034
300.0305217
299.9903793
299.9577758
299.9341464
299.9203299
300.2744044
300.2775111
300.2841128
300.2962259
300.3152934
300.3427236
300.3794354
300.4252497
300.4781278
300.5336809
300.5855407
300.6266089
300.6507763
300.6535342
300.6315843
300.5921139
300.5403252
300.4852679
300.4657126
304.1614663
301.0551057
300.3176144
300.2856581
300.2642787
300.2628153
300.2810158
300.2834082
300.2855974
300.2845758
300.274346
300.2534377
300.2217884
300.1813608
300.1353376
300.0875562
300.0417072
300.0009038
299.9675362
299.943229
299.92896
300.2856968
300.2891972
300.2971417
300.3112522
300.3327983
300.3628718
300.4018524
300.4488223
300.5010103
300.5535948
300.6002684
300.6345444
300.6513938
300.6477182
300.6220451
300.5817063
300.5303524
300.4768583
300.4930102
304.0133846
301.188101
300.3216584
300.2983789
300.2810673
300.2823466
300.2986593
300.3001553
300.301026
300.2988151
300.2875899
300.2656075
300.232652
300.1903847
300.1418526
300.0908632
300.0412878
299.996606
299.9596504
299.9324688
299.9163776
300.2996502
300.3029382
300.3110221
300.3253508
300.3472198
300.3776106
300.4165864
300.4627261
300.5127568
300.5616366
300.6032855
300.631865
300.6432513
300.6353864
300.608125
300.5696187
300.5212168
300.4713213
300.5331297
303.8574245
301.3018207
300.3339696
300.3154609
300.3015575
300.3048152
300.3171823
300.3176128
300.3168369
300.3125726
300.2990863
300.2745524
300.2387153
300.1929917
300.1402869
300.0844057
300.0294589
299.9793674
299.9374961
299.9064148
299.8878647
300.3049015
300.3076362
300.3151474
300.3286859
300.3497171
300.3792671
300.4172511
300.4619176
300.5096288
300.5551852
300.592717
300.6169343
300.6244337
300.6139326
300.5863052
300.5509369
300.5064834
300.4599073
300.5579608
303.6827446
301.423293
300.3406385
300.3245639
300.3130513
300.3169959
300.3243082
300.3227827
300.319623
300.3123909
300.2957727
300.2680492
300.2290089
300.1798792
300.1234079
300.0633617
300.0040101
299.949585
299.903832
299.869698
299.8492293
300.2832621
300.285828
300.2936021
300.3075642
300.3291616
300.3592834
300.3975758
300.4419217
300.4883459
300.5315241
300.5658073
300.5864455
300.5907293
300.5780841
300.5502608
300.5179965
300.4773955
300.4333702
300.5601353
303.4938067
301.5315106
300.331609
300.3144048
300.3039541
300.3068716
300.3082863
300.3032264
300.2962884
300.2848333
300.2642384
300.2330975
300.1913448
300.1401039
300.0819471
300.0204931
299.9599392
299.9045001
299.8579305
299.823197
299.8023565
300.2149813
300.2184441
300.2288201
300.2465702
300.272611
300.3071686
300.3491921
300.395951
300.4430726
300.4851803
300.5169804
300.5344162
300.5356151
300.5207965
300.4925462
300.4628822
300.4258973
300.3842023
300.5343293
303.2863893
301.6016428
300.3008855
300.2782448
300.2672776
300.2672078
300.2616205
300.2510848
300.2386391
300.2215794
300.1962175
300.1616423
300.1180306
300.0664832
300.0093545
299.9499425
299.8920673
299.8395349
299.7956965
299.7631599
299.7436939
300.0875371
300.093064
300.1086232
300.1339339
300.1688792
300.2124779
300.2625029
300.3152881
300.3659411
300.4090774
300.439895
300.4551986
300.4541062
300.4377234
300.4094389
300.3823053
300.3491331
300.3104077
300.4863
303.078628
301.613576
300.2479581
300.2159728
300.2028773
300.1979218
300.1842576
300.1666622
300.1473815
300.1238335
300.0934029
300.0557518
300.0113154
299.961175
299.9073664
299.8526717
299.8002719
299.7532929
299.7144481
299.6858117
299.6687517
299.9043286
299.9125507
299.934674
299.9696798
300.0162688
300.0720662
300.1334697
300.1957026
300.2532327
300.3005958
300.3334289
300.3493459
300.3483974
300.3324965
300.3057106
300.2815945
300.2525098
300.2175742
300.4268379
302.8841465
301.566075
300.1773726
300.133422
300.1169633
300.1059421
300.084253
300.0594173
300.0333401
300.0037719
299.9691468
299.9296188
299.8857658
299.8385391
299.7895111
299.740795
299.694817
299.6539826
299.620412
299.5957492
299.5810844
299.6891332
299.6999028
299.7281913
299.772486
299.8305688
299.8989411
299.9728352
300.0464695
300.1136518
300.1686828
300.2073641
300.2277655
300.2305012
300.2179544
300.194594
300.1735711
300.1477829
300.1163931
300.3668131
302.7110651
301.4783925
300.0959469
300.0385612
300.0185383
300.001972
299.9747054
299.9449827
299.9145191
299.881647
299.8456424
299.8069115
299.7659527
299.7234124
299.6802804
299.6379599
299.5981854
299.5628111
299.5336041
299.512042
299.4991715
299.4838355
299.4964006
299.5290455
299.5801028
299.6469065
299.7253498
299.8099608
299.8942734
299.9715543
300.0357617
300.0825457
300.1099698
300.1186928
300.1110862
300.0916501
300.0720101
300.0467235
300.0167152
300.3111068
302.5565914
301.3776632
300.0096207
299.9377458
299.9156815
299.8965986
299.8691315
299.8400127
299.8105249
299.7798055
299.7476033
299.7142422
299.6799023
299.6447838
299.6092797
299.5741754
299.5407017
299.5104063
299.4849599
299.4659023
299.4544136
299.3387823
299.3521261
299.3866652
299.4408328
299.5119156
299.5956511
299.6862995
299.7770665
299.860902
299.9314901
299.9842398
300.0169768
300.0300787
300.0255573
300.0076486
299.98552
299.9563711
299.9241715
300.2574598
302.4121564
301.289031
299.924317
299.8364448
299.8157162
299.7994656
299.7791678
299.7584813
299.7375968
299.7165046
299.6949771
299.6729394
299.6501051
299.6262088
299.6011606
299.5753098
299.5495828
299.525393
299.5044323
299.4883667
299.4785367
299.2957604
299.3089259
299.3429727
299.3964782
299.4668039
299.5497035
299.6393971
299.7290454
299.8116062
299.8808313
299.9322023
299.9635352
299.9750202
299.9682812
299.9471872
299.9180688
299.8810862
299.8434913
300.2035652
302.2720503
301.232525
299.85062
299.7440498
299.7288742
299.7213952
299.7151071
299.7103371
299.7053899
299.7008986
299.6962884
299.6909228
299.6840718
299.6751283
299.6637163
299.649929
299.6344957
299.6187038
299.6041892
299.5926201
299.5853726
299.3670236
299.3793544
299.4111694
299.4609918
299.5260586
299.6020128
299.6830721
299.7626066
299.8340396
299.8917916
299.9320577
299.953206
299.9556311
299.940774
299.912192
299.8736309
299.8275755
299.7837171
300.1555452
302.1400806
301.2221359
299.8058572
299.676653
299.6700963
299.6750811
299.6858258
299.7002881
299.7144833
299.7293745
299.7439427
299.7570923
299.7678526
299.775485
299.7795074
299.779842
299.7769813
299.7719305
299.7660353
299.7607108
299.7571473
299.5219665
299.5331753
299.5618882
299.6062836
299.6631615
299.7278597
299.7946267
299.857329
299.9103331
299.9492957
299.9716772
299.9768614
299.9657951
299.9399883
299.9028734
299.8563489
299.8039792
299.7565921
300.1286707
302.0300151
301.26286
299.80903
299.6533584
299.6555843
299.6721328
299.6968204
299.7268328
299.7562966
299.7863987
299.8159548
299.8437671
299.8689253
299.8907493
299.908727
299.9225726
299.9323959
299.9386936
299.9422558
299.9439816
299.9446561
299.6959455
299.7060112
299.7314921
299.7701202
299.8181901
299.8707717
299.9222989
299.9673436
300.0013911
300.0214245
300.0261883
300.0161009
299.992765
299.9580058
299.9155009
299.8663196
299.813971
299.7694863
300.1398529
301.9604429
301.3487618
299.8720809
299.6890595
299.6973686
299.7200695
299.7501019
299.785466
299.8195664
299.8540642
299.8881449
299.9209673
299.9519623
299.9806254
300.0064161
300.0287776
300.0473371
300.0619701
300.0728012
300.0801153
300.0842123
299.8213657
299.8305231
299.8534421
299.8876154
299.9291014
299.9729546
300.0139189
300.0471834
300.0690327
300.0773002
300.0715272
300.0528288
300.0233965
299.9856153
299.9438815
299.8994123
299.8550588
299.821993
300.1997189
301.9467729
301.4658633
299.9938563
299.7882506
299.7992568
299.8212396
299.8464061
299.8745833
299.8998715
299.9248383
299.9495844
299.9740412
299.9982219
300.021921
300.044638
300.065626
300.0841438
300.0996028
300.1116475
300.1201347
300.1250349
299.8601318
299.8690224
299.891179
299.9241372
299.9640016
300.0059251
300.0448052
300.0760191
300.0960474
300.1029416
300.09652
300.078282
300.050941
300.0176007
299.9836546
299.9509782
299.9215027
299.9073117
300.3078998
301.9915293
301.5953872
300.157609
299.9394789
299.9515718
299.9685248
299.9820581
299.993827
299.9996062
300.0031309
300.0057657
300.0085444
300.012334
300.017477
300.0237714
300.0305915
300.0372016
300.0429768
300.0475331
300.0507263
300.0525462
299.8174156
299.8270091
299.8509936
299.8869968
299.9311287
299.9784135
300.0234892
300.061416
300.0884079
300.1024114
300.1033626
300.0930995
300.0748377
300.0523325
300.0317859
300.0155148
300.0042201
300.0122157
300.4501995
302.0773495
301.7130042
300.3311144
300.1118282
300.1256077
300.1377454
300.1393535
300.1328428
300.1157471
300.0927201
300.0663577
300.0389582
300.012527
299.9883311
299.966903
299.9482282
299.9321046
299.918417
299.9072861
299.8990454
299.8940826
299.7328352
299.7438835
299.7716131
299.8135312
299.8654566
299.9219439
299.977068
300.0253894
300.0628415
300.087389
300.0992531
300.1006866
300.0952685
300.0870009
300.0822238
300.0829259
300.0882142
300.1164051
300.6003345
302.1703977
301.7904659
300.4743083
300.2619752
300.2785603
300.2892976
300.2842676
300.2650429
300.2301811
300.1844081
300.1310123
300.0733868
300.014805
299.9578111
299.9041428
299.8549045
299.8109154
299.7730028
299.7421506
299.7194491
299.705881
299.6585997
299.6709525
299.7019807
299.7488651
299.8069722
299.8703805
299.9328072
299.988694
300.0341431
300.0675063
300.0894425
300.1024709
300.1100669
300.1157605
300.1251622
300.1391441
300.1551762
300.1978886
300.7302423
302.2355375
301.8052039
300.5556776
300.3535815
300.3728423
300.3856667
300.3808296
300.3578716
300.3154335
300.2572619
300.1864879
300.1070849
300.0234237
299.9394396
299.8583457
299.7826543
299.7144138
299.6554668
299.6076026
299.5725216
299.5516338
299.6359248
299.6483175
299.6793911
299.726084
299.783597
299.846081
299.9076556
299.9634513
300.0103799
300.0474754
300.0757124
300.0973872
300.1151601
300.131348
300.150201
300.1711608
300.1905572
300.242034
300.8225338
302.2521775
301.7509334
300.5656861
300.3738611
300.3939213
300.4098345
300.4093072
300.3897003
300.3492871
300.2902363
300.214869
300.1271391
300.0320514
299.9346371
299.8393987
299.750073
299.6696694
299.6006436
299.5450648
299.5046677
299.4807709
299.6795337
299.690125
299.7165971
299.7560423
299.8041454
299.855976
299.9069608
299.9536886
299.994337
300.028677
300.0576897
300.0829342
300.1057464
300.126907
300.1492064
300.1708808
300.1878949
300.2455179
300.8741769
302.2180291
301.6383798
300.515562
300.3327207
300.3502858
300.3670332
300.3703914
300.3564499
300.3234233
300.272107
300.2038876
300.1222381
300.0321099
299.9388469
299.8474519
299.7621222
299.6860956
299.6217296
299.5706861
299.534103
299.5126903
299.7762377
299.7834947
299.8015433
299.8281507
299.8601582
299.8942225
299.9275923
299.9585785
299.9866253
300.0120524
300.0356126
300.0580045
300.0793417
300.0991979
300.1193113
300.1371818
300.1489889
300.2137453
300.8911956
302.1418783
301.4864934
300.4252303
300.2495425
300.2607233
300.2740482
300.2777343
300.2680562
300.2439712
300.2056639
300.1538224
300.0910626
300.0214091
299.9493555
299.8791767
299.8144154
299.7576554
299.7105402
299.6739504
299.6482324
299.6333979
299.8950074
299.8984177
299.9066095
299.9185726
299.9327178
299.9474916
299.9618401
299.9753824
299.9882987
300.0010469
300.0140559
300.0274706
300.0408369
300.0533356
300.0663561
300.0771682
300.0823027
300.1556557
300.8801242
302.0342298
301.3130592
300.3114023
300.1407319
300.1428813
300.1496415
300.1507986
300.1440353
300.1297282
300.1081588
300.0794952
300.0450961
300.0071986
299.9683316
299.930917
299.8969204
299.8676969
299.8439871
299.8260303
299.8137304
299.806791
305.0718882
289.5042517
290.270309
303.2227545
328.5119085
328.2674426
291.8140723
289.5679134
302.114563
328.3801508
328.5130673
327.429003
293.7383104
291.8844524
300.7714207
327.0809424
328.3656699
325.734548
295.1196241
293.7947163
298.7085509
323.9570745
327.0264212
321.723371
296.1940666
295.161846
298.1218803
314.1728328
323.7850539
307.1323937
304.4175539
290.4697297
298.1779891
284.3557232
284.178082
303.1608604
303.2311824
304.9824034
327.4113638
289.1889128
287.1774407
302.1485061
302.1148987
303.1906267
302.6560465
302.6917928
302.9228849
327.8042109
292.3293733
291.066719
301.0910965
300.776008