/*--------------------------------*- C++ -*----------------------------------*\
| =========                 |                                                 |
| \\      /  F ield         | OpenFOAM: The Open Source CFD Toolbox           |
|  \\    /   O peration     | Version:  v1812                                 |
|   \\  /    A nd           | Web:      www.OpenFOAM.com                      |
|    \\/     M anipulation  |                                                 |
\*---------------------------------------------------------------------------*/
FoamFile
{
    version     2.0;
    format      ascii;
    class       volVectorField;
    location    "0.01";
    object      U;
}
// * * * * * * * * * * * * * * * * * * * * * * * * * * * * * * * * * * * * * //

dimensions      [0 1 -1 0 0 0 0];


internalField   nonuniform List<vector> 
132908
(
(202.3405512 -0.001795012913 0)
(202.340394 -0.0250076922 0)
(202.3402092 -0.04320526992 0)
(202.3397801 -0.05484678404 0)
(202.3389731 -0.05860089794 0)
(202.3377015 -0.05457994795 0)
(202.3359844 -0.04414388017 0)
(202.3339731 -0.02945757675 0)
(202.3319235 -0.01293680881 0)
(202.3301219 0.003284388705 0)
(202.3287927 0.01774605606 0)
(202.3280322 0.02982894455 0)
(202.3277951 0.03967341238 0)
(202.3279337 0.04790836445 0)
(202.3282649 0.05530536366 0)
(202.3286315 0.06247677766 0)
(202.3289363 0.06969192881 0)
(202.3291429 0.07682518786 0)
(202.3292525 0.08340708525 0)
(202.3292679 0.08873418623 0)
(202.3291585 0.0919976783 0)
(202.3288365 0.09240447502 0)
(202.3281547 0.08928585581 0)
(202.3270847 0.08207971462 0)
(202.3250384 0.07105066287 0)
(202.3224431 0.05631898685 0)
(202.3193653 0.03923432367 0)
(202.3162998 0.02184416328 0)
(202.3139706 0.006837732703 0)
(202.313141 -0.003050896469 0)
(202.314334 -0.00591171261 0)
(202.317598 -0.001428794721 0)
(202.3224479 0.008868877023 0)
(202.3280331 0.02201899487 0)
(202.3334451 0.03451018784 0)
(202.3379777 0.0431737671 0)
(202.3412868 0.04584426677 0)
(202.3433835 0.04165533806 0)
(202.3445183 0.03105314117 0)
(202.3450208 0.0155956102 0)
(202.5722803 -0.02425744077 0)
(202.5677195 -0.2117551299 0)
(202.5549239 -0.3655689895 0)
(202.5337028 -0.4633534137 0)
(202.5038327 -0.493772958 0)
(202.4659682 -0.4580006212 0)
(202.422222 -0.3680042773 0)
(202.3762963 -0.2425825871 0)
(202.3328768 -0.1023783161 0)
(202.2964136 0.03480478785 0)
(202.2698154 0.1572439939 0)
(202.2536894 0.2604230657 0)
(202.2464845 0.3460354668 0)
(202.2454112 0.4195212337 0)
(202.2476463 0.4871578908 0)
(202.2512746 0.5536455526 0)
(202.2556478 0.6207138232 0)
(202.2611378 0.6868041854 0)
(202.2684674 0.7475707182 0)
(202.277887 0.7968429049 0)
(202.2884587 0.827724952 0)
(202.2976717 0.8335985763 0)
(202.3015367 0.8089466895 0)
(202.2964759 0.7498360202 0)
(202.2749413 0.6561435834 0)
(202.2381952 0.5303808617 0)
(202.1875717 0.3819623704 0)
(202.1308525 0.2268629561 0)
(202.0808966 0.08693925219 0)
(202.052761 -0.01420809161 0)
(202.0588614 -0.05805188877 0)
(202.104139 -0.03807093819 0)
(202.1837605 0.03674207175 0)
(202.2848281 0.1436164597 0)
(202.3909016 0.252543809 0)
(202.487347 0.3342597634 0)
(202.5648507 0.3670499076 0)
(202.6202649 0.3406613345 0)
(202.6551764 0.2572962414 0)
(202.6733663 0.1302626072 0)
(202.8194548 -0.03930882925 0)
(202.8072629 -0.3444757504 0)
(202.7749329 -0.5960151898 0)
(202.723431 -0.7577711781 0)
(202.6544244 -0.8110372543 0)
(202.5713061 -0.7568447679 0)
(202.4794758 -0.6134368993 0)
(202.3860022 -0.4100482883 0)
(202.2984971 -0.1789754879 0)
(202.2234833 0.05182605066 0)
(202.1648924 0.2637671261 0)
(202.1233696 0.4493054285 0)
(202.0967312 0.6104004969 0)
(202.0813762 0.7547785153 0)
(202.0740166 0.8914893874 0)
(202.0729861 1.027114977 0)
(202.0786339 1.163449559 0)
(202.0927149 1.296824626 0)
(202.117012 1.418795172 0)
(202.1516618 1.517737557 0)
(202.1937837 1.580866256 0)
(202.236943 1.596201689 0)
(202.2717137 1.554202935 0)
(202.2882441 1.448994555 0)
(202.2753268 1.280102367 0)
(202.2301412 1.053746543 0)
(202.1552237 0.7857295017 0)
(202.0630661 0.5024622031 0)
(201.9748156 0.2394967103 0)
(201.9159206 0.03557035684 0)
(201.9089899 -0.07721992389 0)
(201.9663837 -0.08389605565 0)
(202.0860528 0.006705194417 0)
(202.2519215 0.1626728503 0)
(202.439801 0.336758426 0)
(202.6243948 0.4787717967 0)
(202.7857327 0.5479773968 0)
(202.9120963 0.5220053639 0)
(202.9994807 0.4006222263 0)
(203.04879 0.2044164129 0)
(203.0679952 -0.04495605815 0)
(203.0477298 -0.3952541864 0)
(202.9929087 -0.687407314 0)
(202.9072379 -0.8812024731 0)
(202.7951032 -0.9545837972 0)
(202.6632613 -0.9060536962 0)
(202.5203943 -0.7524158246 0)
(202.3761031 -0.5226967995 0)
(202.23951 -0.2502022199 0)
(202.1178596 0.03506460903 0)
(202.0155339 0.3117896017 0)
(201.9338098 0.5695560927 0)
(201.8715053 0.8078664687 0)
(201.8263951 1.032776086 0)
(201.7969089 1.252377548 0)
(201.7834038 1.4724534 0)
(201.7884483 1.693361689 0)
(201.8159105 1.908615438 0)
(201.8688531 2.105133114 0)
(201.946778 2.265076475 0)
(202.0434177 2.368883031 0)
(202.1462277 2.398704279 0)
(202.2381326 2.341410618 0)
(202.3011763 2.190702852 0)
(202.3199764 1.948468302 0)
(202.2881937 1.62695103 0)
(202.209613 1.249530535 0)
(202.1004784 0.8513943138 0)
(201.9873218 0.4765141433 0)
(201.9016574 0.1707448655 0)
(201.8725292 -0.028091706 0)
(201.9191609 -0.1003388368 0)
(202.0464206 -0.05108447859 0)
(202.2432337 0.08878719299 0)
(202.4865447 0.2692295854 0)
(202.7465708 0.4325763119 0)
(202.993716 0.5277144816 0)
(203.2036792 0.5223850575 0)
(203.3598543 0.4103402511 0)
(203.4530097 0.2118026585 0)
(203.2932349 -0.04106145649 0)
(203.2663231 -0.3623998457 0)
(203.1916498 -0.6362259683 0)
(203.0757835 -0.8281868603 0)
(202.9251141 -0.9170656218 0)
(202.748521 -0.8967662592 0)
(202.5564863 -0.7753485075 0)
(202.3598458 -0.5714055413 0)
(202.1684858 -0.3089018909 0)
(201.9903308 -0.0117848647 0)
(201.830818 0.3004555255 0)
(201.69295 0.615462756 0)
(201.577989 0.9285409324 0)
(201.4867163 1.241031891 0)
(201.420984 1.556988113 0)
(201.3849292 1.879012985 0)
(201.3849843 2.204521302 0)
(201.4287831 2.523235717 0)
(201.5221124 2.815999036 0)
(201.6641309 3.05634856 0)
(201.843551 3.215043236 0)
(202.0381689 3.266193672 0)
(202.2195895 3.192691156 0)
(202.3568208 2.990933161 0)
(202.4300061 2.668734277 0)
(202.4302359 2.248414492 0)
(202.3635575 1.763960026 0)
(202.2508128 1.259336153 0)
(202.1233056 0.7830761333 0)
(202.0162897 0.3810291806 0)
(201.9621956 0.08846200756 0)
(201.9848019 -0.0765166332 0)
(202.0961922 -0.1168071549 0)
(202.293263 -0.05609430045 0)
(202.5597369 0.06518192328 0)
(202.867481 0.1978111172 0)
(203.1815286 0.2946281567 0)
(203.4658265 0.3216824814 0)
(203.6887173 0.266572117 0)
(203.8266948 0.1411731875 0)
(203.473214 -0.03028278107 0)
(203.442385 -0.2687635529 0)
(203.3551398 -0.4798518825 0)
(203.2194198 -0.6416778551 0)
(203.0417405 -0.7371338174 0)
(202.8307452 -0.7552196049 0)
(202.5965173 -0.6918089134 0)
(202.3497112 -0.5495479537 0)
(202.1006105 -0.3367902779 0)
(201.8582845 -0.06562219154 0)
(201.6300424 0.2507574814 0)
(201.4213708 0.6007716857 0)
(201.236487 0.9765330557 0)
(201.0797675 1.374542163 0)
(200.9579713 1.794326073 0)
(200.8816535 2.234325311 0)
(200.8633838 2.687604233 0)
(200.9183198 3.139474457 0)
(201.0600042 3.561952047 0)
(201.2902093 3.9144587 0)
(201.5910246 4.151338152 0)
(201.9239578 4.233567678 0)
(202.2403574 4.139749592 0)
(202.4894059 3.871339638 0)
(202.6436988 3.45060405 0)
(202.6930781 2.915253473 0)
(202.6478648 2.313572284 0)
(202.5364527 1.699807959 0)
(202.3975904 1.12440858 0)
(202.2709452 0.628108408 0)
(202.1911977 0.237684797 0)
(202.1843827 -0.0346890001 0)
(202.2665943 -0.1929592322 0)
(202.4406866 -0.2524239885 0)
(202.6969444 -0.2376138679 0)
(203.0118152 -0.1783179224 0)
(203.3502948 -0.1048271057 0)
(203.6705654 -0.04232218038 0)
(203.9307262 -0.005538722074 0)
(204.0957125 0.004258370432 0)
(203.5954184 -0.01680164714 0)
(203.5637315 -0.1506940293 0)
(203.4730493 -0.2785220025 0)
(203.3303844 -0.3924807173 0)
(203.1403437 -0.4814458788 0)
(202.90913 -0.5315485842 0)
(202.6444695 -0.5282070643 0)
(202.3554122 -0.4589348838 0)
(202.0518197 -0.3158865658 0)
(201.743529 -0.09714902456 0)
(201.4394711 0.1937539102 0)
(201.1472021 0.5499873327 0)
(200.873418 0.9644582482 0)
(200.6257296 1.432515313 0)
(200.415845 1.952582157 0)
(200.2671574 2.521846368 0)
(200.1986472 3.1256578 0)
(200.2426961 3.750267641 0)
(200.4324519 4.353584696 0)
(200.7796652 4.870427617 0)
(201.2590893 5.224654316 0)
(201.8051987 5.35215592 0)
(202.3259989 5.225927298 0)
(202.7421699 4.860528914 0)
(203.0100671 4.305620077 0)
(203.1262857 3.622729815 0)
(203.1037964 2.876583673 0)
(202.9877822 2.13748127 0)
(202.8313506 1.45389349 0)
(202.6806657 0.8580329164 0)
(202.5728191 0.3663831099 0)
(202.5334902 -0.01844492188 0)
(202.5785129 -0.3007696488 0)
(202.7113634 -0.4893148958 0)
(202.9246854 -0.592843854 0)
(203.1988357 -0.619657712 0)
(203.5029367 -0.5784959415 0)
(203.7979165 -0.4798696713 0)
(204.0422771 -0.3366369445 0)
(204.1992662 -0.163503061 0)
(203.6602095 -0.004642840594 0)
(203.6299864 -0.04338588527 0)
(203.543519 -0.09144824988 0)
(203.4050994 -0.1521604984 0)
(203.2163139 -0.2207163909 0)
(202.9798068 -0.2839728334 0)
(202.6997213 -0.322525583 0)
(202.3820577 -0.3146513526 0)
(202.034519 -0.2407044434 0)
(201.6657829 -0.08651868686 0)
(201.2844643 0.1552667284 0)
(200.8983613 0.4862814613 0)
(200.5147206 0.9054115158 0)
(200.1422733 1.412465449 0)
(199.795365 2.011530194 0)
(199.5780086 2.664837395 0)
(199.432378 3.385242669 0)
(199.3930059 4.200841746 0)
(199.5770811 5.0312739 0)
(200.0305105 5.778797368 0)
(200.7326392 6.316191005 0)
(201.578209 6.531907441 0)
(202.3996399 6.38168209 0)
(203.059695 5.902782822 0)
(203.4819662 5.189393607 0)
(203.8056831 4.338101407 0)
(203.7786098 3.41840823 0)
(203.6368912 2.527839065 0)
(203.4451804 1.719046775 0)
(203.2578927 1.013613464 0)
(203.113463 0.4174602087 0)
(203.0348142 -0.07329596709 0)
(203.0323467 -0.4643324572 0)
(203.104751 -0.7587073957 0)
(203.2422894 -0.9537045976 0)
(203.4272687 -1.042190528 0)
(203.6355809 -1.017072581 0)
(203.8387763 -0.8775365959 0)
(204.0075348 -0.6346113425 0)
(204.116019 -0.3136897702 0)
(203.6793441 0.003622274899 0)
(203.6515772 0.0303929421 0)
(203.5733481 0.04168615439 0)
(203.4458982 0.02845690123 0)
(203.2680832 -0.009764775698 0)
(203.0390792 -0.06394971796 0)
(202.7590558 -0.1165994101 0)
(202.4296548 -0.1447872284 0)
(202.0540846 -0.1243018345 0)
(201.6368287 -0.03348306157 0)
(201.182876 0.1444081005 0)
(200.6970974 0.4211637929 0)
(200.1845062 0.8059381308 0)
(199.6520614 1.308922841 0)
(199.1134522 1.944905626 0)
(198.7200389 2.684791524 0)
(198.3890964 3.591588448 0)
(198.190776 4.684456076 0)
(198.3319353 5.881288936 0)
(198.9432526 7.032317074 0)
(200.0358201 7.894140531 0)
(201.4155362 8.235239997 0)
(202.7442683 7.981538217 0)
(203.7596762 7.244757747 0)
(204.3605907 6.220607388 0)
(204.7906909 5.041206862 0)
(204.7182901 3.888627615 0)
(204.5122614 2.815738679 0)
(204.2529595 1.864587165 0)
(204.004555 1.043647879 0)
(203.8050711 0.3486908394 0)
(203.6702645 -0.2283458956 0)
(203.6012686 -0.6928975219 0)
(203.5882778 -1.044172226 0)
(203.616752 -1.274467493 0)
(203.6704149 -1.372114521 0)
(203.7340746 -1.327172717 0)
(203.7951139 -1.138578996 0)
(203.8440742 -0.8203809464 0)
(203.8745437 -0.4045550423 0)
(203.6709298 0.007286002174 0)
(203.6454291 0.06401325826 0)
(203.5758148 0.1073856832 0)
(203.4612812 0.1281259404 0)
(203.2992659 0.1225424875 0)
(203.0865476 0.09382156332 0)
(202.81956 0.05252530357 0)
(202.4947264 0.01567552126 0)
(202.1087759 0.004617839573 0)
(201.6590993 0.04227943952 0)
(201.1435189 0.1508926115 0)
(200.5601617 0.3511333045 0)
(199.9074238 0.6633428515 0)
(199.1857748 1.111359577 0)
(198.402692 1.728446326 0)
(197.74935 2.516345747 0)
(197.0604509 3.574719221 0)
(196.509006 4.983185398 0)
(196.424772 6.709270338 0)
(197.1632954 8.555060205 0)
(198.8999918 10.02640916 0)
(201.2552793 10.56792693 0)
(203.4524039 10.05254089 0)
(204.9696337 8.818291136 0)
(205.7317036 7.28979512 0)
(206.1862376 5.658248585 0)
(205.9777813 4.209648636 0)
(205.6344835 2.931245631 0)
(205.2537988 1.835147005 0)
(204.9045393 0.909310359 0)
(204.617701 0.1394084873 0)
(204.3968417 -0.4858775492 0)
(204.2312531 -0.9711188283 0)
(204.1019558 -1.314948403 0)
(203.9906973 -1.512516791 0)
(203.8846103 -1.559683636 0)
(203.7794307 -1.457655294 0)
(203.679713 -1.216952771 0)
(203.5962437 -0.8595867621 0)
(203.5418581 -0.4189039232 0)
(203.6537171 0.007080521767 0)
(203.6298123 0.06346704778 0)
(203.5671576 0.1134827084 0)
(203.4643796 0.1513489716 0)
(203.3189712 0.1725053557 0)
(203.1266692 0.1746709897 0)
(202.881008 0.1595171474 0)
(202.573305 0.1340881884 0)
(202.1930749 0.1113460909 0)
(201.7288345 0.1096288396 0)
(201.1688887 0.151335792 0)
(200.5014854 0.2617137702 0)
(199.7141574 0.4691654402 0)
(198.7929568 0.808154955 0)
(197.724712 1.326655406 0)
(196.7347568 2.067959033 0)
(195.4996783 3.187731748 0)
(194.2789548 4.872881345 0)
(193.5141471 7.30079946 0)
(194.1008277 10.42029557 0)
(196.9773453 13.23601644 0)
(201.3772224 14.09549742 0)
(205.0839268 12.82095247 0)
(207.1363263 10.58033927 0)
(207.8516668 8.254238047 0)
(208.0900607 6.021841102 0)
(207.5878831 4.25958014 0)
(206.9959162 2.790383992 0)
(206.4200045 1.579879268 0)
(205.914742 0.5897833562 0)
(205.4964472 -0.2057519293 0)
(205.1486164 -0.8208348698 0)
(204.8491611 -1.26156401 0)
(204.5724742 -1.531349889 0)
(204.3004623 -1.636290548 0)
(204.0268883 -1.589208912 0)
(203.7589526 -1.410917167 0)
(203.5150551 -1.128506048 0)
(203.3194501 -0.7716203256 0)
(203.1961253 -0.3687822141 0)
(203.6432191 0.00438554328 0)
(203.6204577 0.04058695167 0)
(203.5630597 0.07854453028 0)
(203.4700775 0.1174208206 0)
(203.3399518 0.153621124 0)
(203.1684213 0.181182822 0)
(202.9473183 0.1938815138 0)
(202.6639944 0.1882358393 0)
(202.3017094 0.1664391389 0)
(201.8406943 0.1381288602 0)
(201.2592265 0.1204030136 0)
(200.5340103 0.1367627364 0)
(199.6391502 0.2164227418 0)
(198.5426226 0.3958426396 0)
(197.2010627 0.7258381126 0)
(195.8431197 1.279411612 0)
(193.8771519 2.240534326 0)
(191.5870112 3.924061768 0)
(189.1875802 6.959364755 0)
(188.324615 12.31144376 0)
(193.0811952 18.79396603 0)
(203.0297203 20.15696622 0)
(209.0062565 16.36851167 0)
(210.9617574 12.1576696 0)
(210.9669313 8.749635867 0)
(210.5031209 5.879890914 0)
(209.5043753 3.883700899 0)
(208.5333474 2.308785761 0)
(207.6816189 1.064306607 0)
(206.9615873 0.08744171208 0)
(206.3625741 -0.6577306375 0)
(205.8449206 -1.188850814 0)
(205.3772944 -1.517954772 0)
(204.9323945 -1.659581831 0)
(204.4967201 -1.636711267 0)
(204.0722571 -1.482211365 0)
(203.6747963 -1.235411911 0)
(203.3290644 -0.9351442882 0)
(203.0622174 -0.6122563215 0)
(202.8985423 -0.2849649241 0)
(203.6504797 0.0005362422909 0)
(203.6289768 0.006997565773 0)
(203.5763267 0.02192125682 0)
(203.4920847 0.04900361882 0)
(203.3756404 0.08652941127 0)
(203.2231602 0.1270049376 0)
(203.0259263 0.158972145 0)
(202.7693039 0.1706134681 0)
(202.4327572 0.1539385857 0)
(201.9905896 0.10809993 0)
(201.4132737 0.04087835604 0)
(200.6679095 -0.03203224425 0)
(199.71566 -0.0895648318 0)
(198.5062176 -0.1062514622 0)
(196.9705507 -0.04847585227 0)
(195.3356538 0.1592474631 0)
(192.6797126 0.6479723014 0)
(189.1748258 1.667161954 0)
(184.2446656 4.082046882 0)
(176.5949319 10.93639943 0)
(181.4738856 34.36446306 0)
(212.7538584 30.81866943 0)
(218.0065583 19.19816182 0)
(216.9482877 12.38674884 0)
(214.9996338 8.153200527 0)
(213.2124935 4.937475302 0)
(211.5510651 2.944626936 0)
(210.104958 1.43270385 0)
(208.9194128 0.2860371568 0)
(207.9439453 -0.5680389713 0)
(207.1220182 -1.169821215 0)
(206.4038434 -1.540666032 0)
(205.7503023 -1.703446809 0)
(205.1374268 -1.68786764 0)
(204.5583894 -1.534135047 0)
(204.0211331 -1.28994851 0)
(203.5435317 -1.003240328 0)
(203.147457 -0.713275829 0)
(202.853405 -0.443684085 0)
(202.6779008 -0.1999961293 0)
(203.6828395 -0.003547339865 0)
(203.6631846 -0.02915761262 0)
(203.6160693 -0.0420436559 0)
(203.5408961 -0.03531984782 0)
(203.4372497 -0.00874343365 0)
(203.301591 0.03033111066 0)
(203.1255491 0.06819884183 0)
(202.8945688 0.08798068494 0)
(202.5873951 0.07396839127 0)
(202.1764862 0.01560626274 0)
(201.6285883 -0.09037630902 0)
(200.9046484 -0.2408855122 0)
(199.9595888 -0.4288194072 0)
(198.7370133 -0.6471689362 0)
(197.1569685 -0.8968327204 0)
(195.442435 -1.137963444 0)
(192.4484601 -1.373398743 0)
(188.456509 -1.687260848 0)
(182.2776342 -2.132414902 0)
(168.6333162 -3.950949903 0)
(246.5392297 28.30692225 0)
(230.6853973 15.59205305 0)
(223.651165 9.58214429 0)
(219.0810325 5.907637607 0)
(215.709253 3.043743977 0)
(213.4110665 1.403632365 0)
(211.4955461 0.1775907132 0)
(209.9728903 -0.7106504311 0)
(208.7307121 -1.322814727 0)
(207.6784803 -1.688761929 0)
(206.7567999 -1.838296578 0)
(205.9279696 -1.805562318 0)
(205.1741263 -1.633879279 0)
(204.4932439 -1.373705562 0)
(203.8934537 -1.075813634 0)
(203.3870087 -0.7831813054 0)
(202.9857489 -0.5243619461 0)
(202.6984903 -0.3103564688 0)
(202.5312712 -0.1355830277 0)
(203.7453209 -0.007404360899 0)
(203.7282049 -0.0637295654 0)
(203.6878744 -0.1053039402 0)
(203.6227721 -0.1235249488 0)
(203.5317215 -0.1165764376 0)
(203.4110635 -0.09073297224 0)
(203.2531813 -0.05979922454 0)
(203.0451768 -0.04242841968 0)
(202.7683372 -0.05944171388 0)
(202.396781 -0.1285086983 0)
(201.8984307 -0.2634851575 0)
(201.2357007 -0.4735388043 0)
(200.3647567 -0.7671792191 0)
(199.2319296 -1.160428814 0)
(197.7811407 -1.68532766 0)
(196.2592238 -2.33861289 0)
(193.4713904 -3.261951642 0)
(190.1194776 -4.801883329 0)
(185.7850519 -7.588801369 0)
(180.0996326 -14.13910223 0)
(251.6254087 6.47452813 0)
(236.2981262 6.076747128 0)
(227.7072833 4.138380646 0)
(221.8665811 2.261649139 0)
(217.4092747 0.3965892856 0)
(214.7447492 -0.5994431015 0)
(212.485243 -1.340906883 0)
(210.6916531 -1.832648743 0)
(209.2164456 -2.099606607 0)
(207.9620821 -2.166858179 0)
(206.8691557 -2.066609608 0)
(205.9063183 -1.841359159 0)
(205.0610968 -1.540184334 0)
(204.3310381 -1.211618812 0)
(203.7180181 -0.8964535457 0)
(203.2234676 -0.6221747449 0)
(202.8466467 -0.4009212716 0)
(202.5849064 -0.2308130856 0)
(202.4355464 -0.09931666405 0)
(203.8413596 -0.01089678055 0)
(203.8272237 -0.09533033538 0)
(203.7943958 -0.1644641317 0)
(203.7398849 -0.2090097433 0)
(203.661191 -0.226073993 0)
(203.5540789 -0.2206556581 0)
(203.4118238 -0.2055064056 0)
(203.2244453 -0.1993788181 0)
(202.9773746 -0.224254855 0)
(202.6485681 -0.3039560528 0)
(202.2136233 -0.4584729175 0)
(201.6405824 -0.7075368096 0)
(200.8942351 -1.072553682 0)
(199.9428167 -1.580590997 0)
(198.7680901 -2.283428184 0)
(197.617871 -3.210788678 0)
(195.4206991 -4.545852976 0)
(193.2700551 -6.634899379 0)
(191.14324 -9.830060807 0)
(189.7818572 -14.59598802 0)
(4.495307372 -1.700644069 0)
(243.0175853 -3.947354941 0)
(234.6120081 -1.887020535 0)
(228.0876839 -1.535516303 0)
(222.7059582 -1.825097914 0)
(217.9841708 -2.539186553 0)
(215.3034984 -2.784324061 0)
(212.9022836 -2.939255066 0)
(210.9535259 -2.955463074 0)
(209.3262544 -2.828853308 0)
(207.9360646 -2.577910347 0)
(206.7376502 -2.237514392 0)
(205.70632 -1.849604913 0)
(204.8309057 -1.457200353 0)
(204.1036992 -1.095424498 0)
(203.5165355 -0.7863134989 0)
(203.0593329 -0.5380423232 0)
(202.7209137 -0.3470793659 0)
(202.4907826 -0.2021493349 0)
(202.3611503 -0.08810799914 0)
(203.9724945 -0.01400421859 0)
(203.9612054 -0.1236305 0)
(203.9353789 -0.2181036475 0)
(203.890723 -0.2879299124 0)
(203.8233994 -0.3295672713 0)
(203.7285812 -0.3469185113 0)
(203.6005057 -0.351356081 0)
(203.4317255 -0.3607618564 0)
(203.2123446 -0.3978006282 0)
(202.9278252 -0.4870738385 0)
(202.5612349 -0.6537757452 0)
(202.0926565 -0.9225190438 0)
(201.5009523 -1.31837517 0)
(200.7771458 -1.873220447 0)
(199.9475149 -2.642306469 0)
(199.2731696 -3.644762416 0)
(197.8485451 -5.058097507 0)
(196.8718963 -7.192328945 0)
(196.1623913 -10.22574331 0)
(195.389218 -14.14752852 0)
(43.99567127 -3.543020431 0)
(236.2586582 -8.566148701 0)
(230.9646374 -7.140287564 0)
(226.2179614 -6.124962506 0)
(221.8880244 -5.514598412 0)
(217.4481841 -5.269940692 0)
(215.0435989 -4.83244207 0)
(212.6906363 -4.417591616 0)
(210.7173981 -3.959569954 0)
(209.0439366 -3.455717584 0)
(207.6118418 -2.919099231 0)
(206.3915699 -2.380635576 0)
(205.3652639 -1.874230047 0)
(204.5184813 -1.426622572 0)
(203.83552 -1.053048529 0)
(203.2990587 -0.7556774712 0)
(202.8907896 -0.5260877031 0)
(202.5937355 -0.3498670602 0)
(202.394052 -0.2108942728 0)
(202.2822438 -0.09426962372 0)
(204.1374682 -0.01667684537 0)
(204.1284524 -0.1480641975 0)
(204.1080627 -0.2646514418 0)
(204.0712966 -0.3569198828 0)
(204.0134987 -0.4209607421 0)
(203.929615 -0.4598404839 0)
(203.8147104 -0.4838276452 0)
(203.6636042 -0.5098624484 0)
(203.4708495 -0.5598530208 0)
(203.228937 -0.6586065544 0)
(202.9293282 -0.8325021289 0)
(202.5647368 -1.105793956 0)
(202.1296376 -1.501218133 0)
(201.6353845 -2.045592327 0)
(201.1586051 -2.767410402 0)
(200.9292539 -3.665497943 0)
(200.2427234 -4.893299261 0)
(200.4040835 -6.695639696 0)
(201.2553993 -9.467819186 0)
(201.9903415 -14.0400622 0)
(73.66203957 -5.053332679 0)
(231.9686338 -12.0903372 0)
(227.1642844 -11.0073259 0)
(223.3720225 -9.619688812 0)
(219.9527241 -8.410328431 0)
(216.0566552 -7.472499518 0)
(214.0537897 -6.488799012 0)
(211.8938092 -5.602425283 0)
(210.0275559 -4.758811459 0)
(208.4157946 -3.952814882 0)
(207.0387402 -3.202859359 0)
(205.8797271 -2.528707098 0)
(204.922777 -1.948401452 0)
(204.1495938 -1.470305931 0)
(203.5376328 -1.090681407 0)
(203.064132 -0.7967219967 0)
(202.7076605 -0.5700455672 0)
(202.4500345 -0.3910333862 0)
(202.2775062 -0.2422871011 0)
(202.180995 -0.1101990802 0)
(204.3317251 -0.01878232805 0)
(204.3242566 -0.1673876001 0)
(204.307303 -0.3016744003 0)
(204.2759334 -0.4122348091 0)
(204.2254435 -0.4949768661 0)
(204.1510528 -0.5524058528 0)
(204.0486526 -0.5940974667 0)
(203.9149671 -0.6361239695 0)
(203.7481444 -0.6994548137 0)
(203.5461231 -0.8086257411 0)
(203.3081888 -0.9885975476 0)
(203.0373146 -1.260513621 0)
(202.7392647 -1.642396036 0)
(202.4376034 -2.142474151 0)
(202.2333102 -2.756015161 0)
(202.3106134 -3.437251572 0)
(202.1516232 -4.253287357 0)
(203.1328963 -5.237118577 0)
(205.8153549 -6.708370713 0)
(212.307499 -11.54207182 0)
(111.2007938 -8.733973488 0)
(228.2860604 -16.90775444 0)
(223.1365402 -14.32368543 0)
(220.0321796 -12.18425523 0)
(217.413 -10.4450676 0)
(214.0781356 -8.937049362 0)
(212.5301372 -7.604856899 0)
(210.6555309 -6.398174882 0)
(208.9902584 -5.304325279 0)
(207.534659 -4.315755999 0)
(206.2914497 -3.444585551 0)
(205.2560509 -2.700707532 0)
(204.4121124 -2.084278986 0)
(203.7384773 -1.588488038 0)
(203.2102453 -1.198202888 0)
(202.8036343 -0.8932837581 0)
(202.4981708 -0.6523537967 0)
(202.2775246 -0.4553696211 0)
(202.1297398 -0.2856749651 0)
(202.0469529 -0.1307904791 0)
(204.5477742 -0.02013814368 0)
(204.541269 -0.1799410629 0)
(204.5261445 -0.3262511565 0)
(204.4982061 -0.4500762136 0)
(204.4533765 -0.547359515 0)
(204.3876249 -0.6203312821 0)
(204.2978346 -0.6781284846 0)
(204.1823971 -0.7360809711 0)
(204.0419475 -0.8147023395 0)
(203.8782396 -0.9380834236 0)
(203.6961767 -1.128788291 0)
(203.5038995 -1.405312187 0)
(203.3101738 -1.778955582 0)
(203.1386019 -2.236391234 0)
(203.0844407 -2.747086159 0)
(203.2499048 -3.211684933 0)
(203.1728398 -3.59121988 0)
(203.9769951 -3.58566492 0)
(206.1173203 -2.303016829 0)
(214.1926745 4.352051678 0)
(169.045351 -27.2626292 0)
(221.1097506 -21.81290386 0)
(218.1976626 -16.67915481 0)
(216.3388718 -13.68556999 0)
(214.5624512 -11.54189323 0)
(211.8330146 -9.6330365 0)
(210.7049548 -8.124606843 0)
(209.1630939 -6.781742547 0)
(207.7545901 -5.590441277 0)
(206.5128557 -4.547161808 0)
(205.4511543 -3.648602358 0)
(204.5710437 -2.893348629 0)
(203.8583554 -2.270377043 0)
(203.292016 -1.764125507 0)
(202.8490321 -1.35670419 0)
(202.5082415 -1.028384372 0)
(202.2521082 -0.7599813366 0)
(202.0670794 -0.5341476033 0)
(201.9432206 -0.3360796669 0)
(201.8737557 -0.1539558878 0)
(204.7763525 -0.02063661085 0)
(204.7705428 -0.1847582784 0)
(204.7565558 -0.3367907889 0)
(204.7312981 -0.4686767786 0)
(204.6917229 -0.5768005204 0)
(204.6348962 -0.6635100586 0)
(204.5589727 -0.7377206656 0)
(204.4638673 -0.8143892238 0)
(204.3518131 -0.9141891049 0)
(204.2269859 -1.060406095 0)
(204.0965574 -1.273794174 0)
(203.9676459 -1.572170066 0)
(203.8461482 -1.958202654 0)
(203.7422408 -2.404867815 0)
(203.7186222 -2.880988418 0)
(203.8021196 -3.236118778 0)
(203.4566643 -3.421891659 0)
(203.2578641 -3.139770663 0)
(202.2473638 -1.58150871 0)
(195.6287689 1.212976199 0)
(193.2858496 -28.68712154 0)
(211.7999851 -21.61103323 0)
(212.8935226 -16.85215075 0)
(212.6274572 -13.85347088 0)
(211.6801394 -11.65128296 0)
(209.575095 -9.600893817 0)
(208.8192616 -8.098058499 0)
(207.6095429 -6.788363665 0)
(206.4730217 -5.640383648 0)
(205.4592421 -4.648374135 0)
(204.5904013 -3.800685914 0)
(203.8675785 -3.081351347 0)
(203.2817131 -2.476139537 0)
(202.8157675 -1.968437794 0)
(202.4512982 -1.543426138 0)
(202.1714825 -1.186857688 0)
(201.961981 -0.8848191872 0)
(201.8114706 -0.6242612381 0)
(201.7113591 -0.3930045886 0)
(201.6553162 -0.1798924772 0)
(205.0079952 -0.02032981925 0)
(205.0029799 -0.1823177771 0)
(204.9906395 -0.3343251327 0)
(204.9690295 -0.4699456849 0)
(204.9362722 -0.5866733189 0)
(204.8907531 -0.6875325055 0)
(204.8321177 -0.7815711449 0)
(204.7615794 -0.8839097487 0)
(204.6823532 -1.01533831 0)
(204.5995214 -1.197634636 0)
(204.5185886 -1.450912697 0)
(204.4420257 -1.791463566 0)
(204.3683112 -2.213362741 0)
(204.2850323 -2.691640905 0)
(204.2324764 -3.202602302 0)
(204.1925472 -3.568421042 0)
(203.5419788 -3.870963252 0)
(202.6217632 -4.013621079 0)
(200.341773 -3.845687973 0)
(195.6526617 -0.9846656427 0)
(193.9573764 -15.50490101 0)
(206.5953386 -17.4045039 0)
(208.9102024 -15.07439563 0)
(209.4772035 -12.82098288 0)
(209.068602 -10.89999717 0)
(207.5245714 -8.987839599 0)
(207.0533297 -7.632615916 0)
(206.1448035 -6.481491957 0)
(205.2610553 -5.480337727 0)
(204.461796 -4.619035386 0)
(203.7666715 -3.874501609 0)
(203.1797131 -3.225276474 0)
(202.7009383 -2.66021246 0)
(202.3184603 -2.165837752 0)
(202.0194395 -1.732612232 0)
(201.7915635 -1.353167042 0)
(201.6231648 -1.019751428 0)
(201.5041583 -0.7241303529 0)
(201.4263587 -0.4572940263 0)
(201.3831876 -0.2094905759 0)
(205.2348915 -0.01949596918 0)
(205.231112 -0.1751337232 0)
(205.2221759 -0.3236252558 0)
(205.2070877 -0.4610693583 0)
(205.1850961 -0.5869196917 0)
(205.1559638 -0.7055243746 0)
(205.1207324 -0.8265195469 0)
(205.0814371 -0.9653424514 0)
(205.0414905 -1.141755476 0)
(205.0047323 -1.374985852 0)
(204.9720523 -1.683675405 0)
(204.9395687 -2.079048566 0)
(204.8948332 -2.549869595 0)
(204.807879 -3.079160613 0)
(204.7173845 -3.646920535 0)
(204.5903641 -4.086786917 0)
(203.8122965 -4.597655986 0)
(202.7781256 -5.188935854 0)
(200.9408585 -6.235699643 0)
(194.0897745 -12.76887267 0)
(202.6578452 -16.57359436 0)
(205.1214469 -13.91387474 0)
(206.5678753 -12.66141086 0)
(207.1430929 -11.11126976 0)
(206.9302565 -9.595769488 0)
(205.8028242 -7.996106578 0)
(205.5366326 -6.881015708 0)
(204.8677267 -5.951452501 0)
(204.1943521 -5.149048472 0)
(203.5690364 -4.451834857 0)
(203.0126629 -3.837791418 0)
(202.5336297 -3.284215427 0)
(202.1349611 -2.78016701 0)
(201.8129357 -2.318047569 0)
(201.5617058 -1.894595317 0)
(201.3720211 -1.507059934 0)
(201.2345446 -1.152814573 0)
(201.1398778 -0.8278846701 0)
(201.0797204 -0.5267534926 0)
(201.0469475 -0.2421681461 0)
(205.4533117 -0.01866026734 0)
(205.4515367 -0.167966375 0)
(205.4490056 -0.3136876851 0)
(205.445263 -0.455298244 0)
(205.4404586 -0.5949577953 0)
(205.4354566 -0.7387510569 0)
(205.4320535 -0.8969721833 0)
(205.4321194 -1.08448962 0)
(205.4377571 -1.317910317 0)
(205.4491011 -1.61202457 0)
(205.4607126 -1.980698276 0)
(205.4612441 -2.426902201 0)
(205.4278393 -2.936305321 0)
(205.3241525 -3.496942417 0)
(205.1998644 -4.091577347 0)
(205.0326456 -4.585962696 0)
(204.2675579 -5.198941703 0)
(203.3653674 -5.90936402 0)
(202.1490624 -6.708054505 0)
(197.4647739 -2.583668324 0)
(199.5415147 -8.839299858 0)
(204.3612267 -11.10222665 0)
(205.1794247 -10.34418847 0)
(205.5007158 -9.226451474 0)
(205.3044278 -8.086297217 0)
(204.4477248 -6.846792913 0)
(204.3119611 -5.992626735 0)
(203.8196535 -5.29048583 0)
(203.302365 -4.687670468 0)
(202.8059012 -4.155286234 0)
(202.3496029 -3.674703322 0)
(201.9449633 -3.225388999 0)
(201.5995429 -2.797878844 0)
(201.3159802 -2.38892792 0)
(201.0920343 -1.996513494 0)
(200.9226033 -1.62074424 0)
(200.8009973 -1.26251773 0)
(200.7185158 -0.920383623 0)
(200.6671189 -0.5920324633 0)
(200.6396166 -0.273740174 0)
(205.666725 -0.01858657877 0)
(205.6680656 -0.1677701994 0)
(205.6761213 -0.3175945154 0)
(205.6902787 -0.4715223282 0)
(205.711006 -0.6346155965 0)
(205.7394139 -0.814356979 0)
(205.7767123 -1.020742884 0)
(205.8229151 -1.265953456 0)
(205.8766186 -1.560737581 0)
(205.9320829 -1.912831714 0)
(205.9767333 -2.327730978 0)
(205.9919019 -2.799011145 0)
(205.9484942 -3.309867285 0)
(205.8138234 -3.850797694 0)
(205.6534646 -4.409638198 0)
(205.4623213 -4.891170789 0)
(204.7431004 -5.455166812 0)
(203.964928 -6.05985524 0)
(203.0965963 -6.982463423 0)
(189.0469946 -12.0711393 0)
(202.9803117 -11.87775377 0)
(203.9974308 -9.106797505 0)
(204.2419105 -8.348070259 0)
(204.3378507 -7.484470648 0)
(204.12352 -6.642342894 0)
(203.4267953 -5.723821076 0)
(203.3641884 -5.094705341 0)
(202.992126 -4.583016016 0)
(202.580749 -4.144352415 0)
(202.1723639 -3.751012062 0)
(201.7829566 -3.387487666 0)
(201.4257497 -3.037324588 0)
(201.1109285 -2.691521786 0)
(200.8447723 -2.347762288 0)
(200.6288854 -2.004279747 0)
(200.4615169 -1.660831209 0)
(200.3379538 -1.317799548 0)
(200.2522589 -0.9760178024 0)
(200.1976262 -0.6352651489 0)
(200.1682075 -0.2955851609 0)
(205.888807 -0.0202253583 0)
(205.894691 -0.1831804207 0)
(205.918323 -0.3512596369 0)
(205.9577908 -0.5317882244 0)